 Entering Gaussian System, Link 0=g16
 Initial command:
 /usr/local/g16/l1.exe "/scratch/GAUSS/Gau-2284041.inp" -scrdir="/scratch/GAUSS/"
 Entering Link 1 = /usr/local/g16/l1.exe PID=   2284044.
  
 Copyright (c) 1988-2017, Gaussian, Inc.  All Rights Reserved.
  
 This is part of the Gaussian(R) 16 program.  It is based on
 the Gaussian(R) 09 system (copyright 2009, Gaussian, Inc.),
 the Gaussian(R) 03 system (copyright 2003, Gaussian, Inc.),
 the Gaussian(R) 98 system (copyright 1998, Gaussian, Inc.),
 the Gaussian(R) 94 system (copyright 1995, Gaussian, Inc.),
 the Gaussian 92(TM) system (copyright 1992, Gaussian, Inc.),
 the Gaussian 90(TM) system (copyright 1990, Gaussian, Inc.),
 the Gaussian 88(TM) system (copyright 1988, Gaussian, Inc.),
 the Gaussian 86(TM) system (copyright 1986, Carnegie Mellon
 University), and the Gaussian 82(TM) system (copyright 1983,
 Carnegie Mellon University). Gaussian is a federally registered
 trademark of Gaussian, Inc.
  
 This software contains proprietary and confidential information,
 including trade secrets, belonging to Gaussian, Inc.
  
 This software is provided under written license and may be
 used, copied, transmitted, or stored only in accord with that
 written license.
  
 The following legend is applicable only to US Government
 contracts under FAR:
  
                    RESTRICTED RIGHTS LEGEND
  
 Use, reproduction and disclosure by the US Government is
 subject to restrictions as set forth in subparagraphs (a)
 and (c) of the Commercial Computer Software - Restricted
 Rights clause in FAR 52.227-19.
  
 Gaussian, Inc.
 340 Quinnipiac St., Bldg. 40, Wallingford CT 06492
  
  
 ---------------------------------------------------------------
 Warning -- This program may not be used in any manner that
 competes with the business of Gaussian, Inc. or will provide
 assistance to any competitor of Gaussian, Inc.  The licensee
 of this program is prohibited from giving any competitor of
 Gaussian, Inc. access to this program.  By using this program,
 the user acknowledges that Gaussian, Inc. is engaged in the
 business of creating and licensing software in the field of
 computational chemistry and represents and warrants to the
 licensee that it is not a competitor of Gaussian, Inc. and that
 it will not use this program in any manner prohibited above.
 ---------------------------------------------------------------
  

 Cite this work as:
 Gaussian 16, Revision B.01,
 M. J. Frisch, G. W. Trucks, H. B. Schlegel, G. E. Scuseria, 
 M. A. Robb, J. R. Cheeseman, G. Scalmani, V. Barone, 
 G. A. Petersson, H. Nakatsuji, X. Li, M. Caricato, A. V. Marenich, 
 J. Bloino, B. G. Janesko, R. Gomperts, B. Mennucci, H. P. Hratchian, 
 J. V. Ortiz, A. F. Izmaylov, J. L. Sonnenberg, D. Williams-Young, 
 F. Ding, F. Lipparini, F. Egidi, J. Goings, B. Peng, A. Petrone, 
 T. Henderson, D. Ranasinghe, V. G. Zakrzewski, J. Gao, N. Rega, 
 G. Zheng, W. Liang, M. Hada, M. Ehara, K. Toyota, R. Fukuda, 
 J. Hasegawa, M. Ishida, T. Nakajima, Y. Honda, O. Kitao, H. Nakai, 
 T. Vreven, K. Throssell, J. A. Montgomery, Jr., J. E. Peralta, 
 F. Ogliaro, M. J. Bearpark, J. J. Heyd, E. N. Brothers, K. N. Kudin, 
 V. N. Staroverov, T. A. Keith, R. Kobayashi, J. Normand, 
 K. Raghavachari, A. P. Rendell, J. C. Burant, S. S. Iyengar, 
 J. Tomasi, M. Cossi, J. M. Millam, M. Klene, C. Adamo, R. Cammi, 
 J. W. Ochterski, R. L. Martin, K. Morokuma, O. Farkas, 
 J. B. Foresman, and D. J. Fox, Gaussian, Inc., Wallingford CT, 2016.
 
 ******************************************
 Gaussian 16:  ES64L-G16RevB.01 20-Dec-2017
                 8-Apr-2024 
 ******************************************
 %mem=48GB
 %nprocshared=24
 Will use up to   24 processors via shared memory.
 %chk=twobasissetopt
 ------------------------------
 #P MP2 gen Opt Units=Angstroms
 ------------------------------
 1/18=20,19=15,38=1/1,3;
 2/9=110,12=2,17=6,18=5,40=1/2;
 3/5=7,11=9,25=1,30=1,71=1/1,2,3;
 4//1;
 5/5=2,38=5/2;
 8/6=4,10=1/1;
 9/15=2,16=-3/6;
 10/5=1/2;
 6/7=2,8=2,9=2,10=2/1;
 7/12=2/1,2,3,16;
 1/18=20,19=15/3(2);
 2/9=110/2;
 99//99;
 2/9=110/2;
 3/5=7,6=1,11=9,25=1,30=1,71=1,82=7/1,2,3;
 4/5=5,16=3,69=1/1;
 5/5=2,38=5/2;
 8/6=4,10=1/1;
 9/15=2,16=-3/6;
 10/5=1/2;
 7/12=2/1,2,3,16;
 1/18=20,19=15/3(-8);
 2/9=110/2;
 6/7=2,8=2,9=2,10=2/1;
 99/9=10/99;
 Leave Link    1 at Mon Apr  8 09:24:38 2024, MaxMem=  6442450944 cpu:               1.4 elap:               0.1
 (Enter /usr/local/g16/l101.exe)
 ----------------------------------------------------------------------
 Geometry optimization with frozen fullerene and free pseudomolecule di
 ff basis set
 ----------------------------------------------------------------------
 Symbolic Z-matrix:
 Charge =  0 Multiplicity = 1
 C                    -1   -1.96433  -1.42717   2.59927 
 C                    -1   -2.96671  -0.6989    1.83353 
 C                    -1   -2.96671   0.6989    1.83353 
 C                    -1   -1.96433   1.42717   2.59927 
 C                    -1   -1.00237   0.72827   3.33414 
 C                    -1   -1.00237  -0.72827   3.33414 
 C                    -1   -3.20333  -1.42717   0.59452 
 C                    -1   -3.20333   1.42717   0.59452 
 C                    -1   -1.58146   2.60553   1.83353 
 C                    -1    0.38287   1.17836   3.33414 
 C                    -1    0.38287  -1.17836   3.33414 
 C                    -1   -1.58146  -2.60553   1.83353 
 C                    -1    0.75031   2.30921   2.59927 
 C                    -1   -0.25206   3.03748   1.83353 
 C                    -1    1.98931   2.30921   1.83353 
 C                    -1    0.36744   3.48757   0.59452 
 C                    -1   -3.43042  -0.72827  -0.59452 
 C                    -1   -2.34721   2.60553   0.59452 
 C                    -1    1.75268   3.03748   0.59452 
 C                    -1   -1.75268   3.03748  -0.59452 
 C                    -1   -3.43042   0.72827  -0.59452 
 C                    -1    1.239     0.        3.33414 
 C                    -1    0.75031  -2.30921   2.59927 
 C                    -1   -2.81092  -1.17836  -1.83353 
 C                    -1   -0.25206  -3.03748   1.83353 
 C                    -1   -2.34721  -2.60553   0.59452 
 C                    -1    1.98931  -2.30921   1.83353 
 C                    -1    0.36744  -3.48757   0.59452 
 C                    -1   -1.75268  -3.03748  -0.59452 
 C                    -1   -0.36744   3.48757  -0.59452 
 C                    -1    2.42805   0.        2.59927 
 C                    -1   -2.81092   1.17836  -1.83353 
 C                    -1    1.75268  -3.03748   0.59452 
 C                    -1   -0.36744  -3.48757  -0.59452 
 C                    -1   -1.98931  -2.30921  -1.83353 
 C                    -1   -0.75031  -2.30921  -2.59927 
 C                    -1   -2.42805   0.       -2.59927 
 C                    -1   -1.98931   2.30921  -1.83353 
 C                    -1   -0.75031   2.30921  -2.59927 
 C                    -1    0.25206  -3.03748  -1.83353 
 C                    -1    1.58146  -2.60553  -1.83353 
 C                    -1    1.96433  -1.42717  -2.59927 
 C                    -1    2.34721  -2.60553  -0.59452 
 C                    -1    2.81092   1.17836   1.83353 
 C                    -1   -0.38287   1.17836  -3.33414 
 C                    -1    2.81092  -1.17836   1.83353 
 C                    -1    3.43042  -0.72827   0.59452 
 C                    -1   -1.239     0.       -3.33414 
 C                    -1    0.25206   3.03748  -1.83353 
 C                    -1    1.58146   2.60553  -1.83353 
 C                    -1   -0.38287  -1.17836  -3.33414 
 C                    -1    1.00237  -0.72827  -3.33414 
 C                    -1    3.20333  -1.42717  -0.59452 
 C                    -1    2.96671  -0.6989   -1.83353 
 C                    -1    1.00237   0.72827  -3.33414 
 C                    -1    3.43042   0.72827   0.59452 
 C                    -1    2.34721   2.60553  -0.59452 
 C                    -1    1.96433   1.42717  -2.59927 
 C                    -1    3.20333   1.42717  -0.59452 
 C                    -1    2.96671   0.6989   -1.83353 
 He(Iso=3.016029)      0.53905   0.97883  -0.13832 
 He(Iso=3.016029)     -1.10249   0.        0.26411 
 He(Iso=3.016029)      0.53905  -0.97883  -0.13832 
 
 Add virtual bond connecting atoms He62       and He61       Dist= 3.69D+00.
 Add virtual bond connecting atoms He63       and He61       Dist= 3.70D+00.
 Add virtual bond connecting atoms He63       and He62       Dist= 3.69D+00.
 Add virtual bond connecting atoms He61       and C16        Dist= 4.95D+00.
 Add virtual bond connecting atoms He61       and C19        Dist= 4.72D+00.
 Add virtual bond connecting atoms He61       and C50        Dist= 4.86D+00.
 Add virtual bond connecting atoms He61       and C57        Dist= 4.68D+00.
 Add virtual bond connecting atoms He62       and C2         Dist= 4.79D+00.
 ITRead=  2  2  2  2  2  2  2  2  2  2  2  2  2  2  2  2  2  2  2  2
 ITRead=  2  2  2  2  2  2  2  2  2  2  2  2  2  2  2  2  2  2  2  2
 ITRead=  2  2  2  2  2  2  2  2  2  2  2  2  2  2  2  2  2  2  2  2
 ITRead=  0  0  0
 MicOpt= -2 -2 -2 -2 -2 -2 -2 -2 -2 -2 -2 -2 -2 -2 -2 -2 -2 -2 -2 -2
 MicOpt= -2 -2 -2 -2 -2 -2 -2 -2 -2 -2 -2 -2 -2 -2 -2 -2 -2 -2 -2 -2
 MicOpt= -2 -2 -2 -2 -2 -2 -2 -2 -2 -2 -2 -2 -2 -2 -2 -2 -2 -2 -2 -2
 MicOpt= -1 -1 -1
 NAtoms=     63 NQM=        3 NQMF=      60 NMMI=      0 NMMIF=      0
                NMic=       0 NMicF=      0.
                    Isotopes and Nuclear Properties:
 (Nuclear quadrupole moments (NQMom) in fm**2, nuclear magnetic moments (NMagM)
  in nuclear magnetons)

  Atom         1           2           3           4           5           6           7           8           9          10
 IAtWgt=          12          12          12          12          12          12          12          12          12          12
 AtmWgt=  12.0000000  12.0000000  12.0000000  12.0000000  12.0000000  12.0000000  12.0000000  12.0000000  12.0000000  12.0000000
 NucSpn=           0           0           0           0           0           0           0           0           0           0
 AtZEff=  -0.0000000  -0.0000000  -0.0000000  -0.0000000  -0.0000000  -0.0000000  -0.0000000  -0.0000000  -0.0000000  -0.0000000
 NQMom=    0.0000000   0.0000000   0.0000000   0.0000000   0.0000000   0.0000000   0.0000000   0.0000000   0.0000000   0.0000000
 NMagM=    0.0000000   0.0000000   0.0000000   0.0000000   0.0000000   0.0000000   0.0000000   0.0000000   0.0000000   0.0000000
 AtZNuc=   6.0000000   6.0000000   6.0000000   6.0000000   6.0000000   6.0000000   6.0000000   6.0000000   6.0000000   6.0000000

  Atom        11          12          13          14          15          16          17          18          19          20
 IAtWgt=          12          12          12          12          12          12          12          12          12          12
 AtmWgt=  12.0000000  12.0000000  12.0000000  12.0000000  12.0000000  12.0000000  12.0000000  12.0000000  12.0000000  12.0000000
 NucSpn=           0           0           0           0           0           0           0           0           0           0
 AtZEff=  -0.0000000  -0.0000000  -0.0000000  -0.0000000  -0.0000000  -0.0000000  -0.0000000  -0.0000000  -0.0000000  -0.0000000
 NQMom=    0.0000000   0.0000000   0.0000000   0.0000000   0.0000000   0.0000000   0.0000000   0.0000000   0.0000000   0.0000000
 NMagM=    0.0000000   0.0000000   0.0000000   0.0000000   0.0000000   0.0000000   0.0000000   0.0000000   0.0000000   0.0000000
 AtZNuc=   6.0000000   6.0000000   6.0000000   6.0000000   6.0000000   6.0000000   6.0000000   6.0000000   6.0000000   6.0000000

  Atom        21          22          23          24          25          26          27          28          29          30
 IAtWgt=          12          12          12          12          12          12          12          12          12          12
 AtmWgt=  12.0000000  12.0000000  12.0000000  12.0000000  12.0000000  12.0000000  12.0000000  12.0000000  12.0000000  12.0000000
 NucSpn=           0           0           0           0           0           0           0           0           0           0
 AtZEff=  -0.0000000  -0.0000000  -0.0000000  -0.0000000  -0.0000000  -0.0000000  -0.0000000  -0.0000000  -0.0000000  -0.0000000
 NQMom=    0.0000000   0.0000000   0.0000000   0.0000000   0.0000000   0.0000000   0.0000000   0.0000000   0.0000000   0.0000000
 NMagM=    0.0000000   0.0000000   0.0000000   0.0000000   0.0000000   0.0000000   0.0000000   0.0000000   0.0000000   0.0000000
 AtZNuc=   6.0000000   6.0000000   6.0000000   6.0000000   6.0000000   6.0000000   6.0000000   6.0000000   6.0000000   6.0000000

  Atom        31          32          33          34          35          36          37          38          39          40
 IAtWgt=          12          12          12          12          12          12          12          12          12          12
 AtmWgt=  12.0000000  12.0000000  12.0000000  12.0000000  12.0000000  12.0000000  12.0000000  12.0000000  12.0000000  12.0000000
 NucSpn=           0           0           0           0           0           0           0           0           0           0
 AtZEff=  -0.0000000  -0.0000000  -0.0000000  -0.0000000  -0.0000000  -0.0000000  -0.0000000  -0.0000000  -0.0000000  -0.0000000
 NQMom=    0.0000000   0.0000000   0.0000000   0.0000000   0.0000000   0.0000000   0.0000000   0.0000000   0.0000000   0.0000000
 NMagM=    0.0000000   0.0000000   0.0000000   0.0000000   0.0000000   0.0000000   0.0000000   0.0000000   0.0000000   0.0000000
 AtZNuc=   6.0000000   6.0000000   6.0000000   6.0000000   6.0000000   6.0000000   6.0000000   6.0000000   6.0000000   6.0000000

  Atom        41          42          43          44          45          46          47          48          49          50
 IAtWgt=          12          12          12          12          12          12          12          12          12          12
 AtmWgt=  12.0000000  12.0000000  12.0000000  12.0000000  12.0000000  12.0000000  12.0000000  12.0000000  12.0000000  12.0000000
 NucSpn=           0           0           0           0           0           0           0           0           0           0
 AtZEff=  -0.0000000  -0.0000000  -0.0000000  -0.0000000  -0.0000000  -0.0000000  -0.0000000  -0.0000000  -0.0000000  -0.0000000
 NQMom=    0.0000000   0.0000000   0.0000000   0.0000000   0.0000000   0.0000000   0.0000000   0.0000000   0.0000000   0.0000000
 NMagM=    0.0000000   0.0000000   0.0000000   0.0000000   0.0000000   0.0000000   0.0000000   0.0000000   0.0000000   0.0000000
 AtZNuc=   6.0000000   6.0000000   6.0000000   6.0000000   6.0000000   6.0000000   6.0000000   6.0000000   6.0000000   6.0000000

  Atom        51          52          53          54          55          56          57          58          59          60
 IAtWgt=          12          12          12          12          12          12          12          12          12          12
 AtmWgt=  12.0000000  12.0000000  12.0000000  12.0000000  12.0000000  12.0000000  12.0000000  12.0000000  12.0000000  12.0000000
 NucSpn=           0           0           0           0           0           0           0           0           0           0
 AtZEff=  -0.0000000  -0.0000000  -0.0000000  -0.0000000  -0.0000000  -0.0000000  -0.0000000  -0.0000000  -0.0000000  -0.0000000
 NQMom=    0.0000000   0.0000000   0.0000000   0.0000000   0.0000000   0.0000000   0.0000000   0.0000000   0.0000000   0.0000000
 NMagM=    0.0000000   0.0000000   0.0000000   0.0000000   0.0000000   0.0000000   0.0000000   0.0000000   0.0000000   0.0000000
 AtZNuc=   6.0000000   6.0000000   6.0000000   6.0000000   6.0000000   6.0000000   6.0000000   6.0000000   6.0000000   6.0000000

  Atom        61          62          63
 IAtWgt=           3           3           3
 AtmWgt=   3.0160293   3.0160293   3.0160293
 NucSpn=           1           1           1
 AtZEff=  -0.0000000  -0.0000000  -0.0000000
 NQMom=    0.0000000   0.0000000   0.0000000
 NMagM=   -2.1276200  -2.1276200  -2.1276200
 AtZNuc=   2.0000000   2.0000000   2.0000000
 Leave Link  101 at Mon Apr  8 09:24:39 2024, MaxMem=  6442450944 cpu:               9.3 elap:               0.4
 (Enter /usr/local/g16/l103.exe)

 GradGradGradGradGradGradGradGradGradGradGradGradGradGradGradGradGradGrad
 Berny optimization.
 Initialization pass.
                           ----------------------------
                           !    Initial Parameters    !
                           ! (Angstroms and Degrees)  !
 --------------------------                            --------------------------
 ! Name  Definition              Value          Derivative Info.                !
 --------------------------------------------------------------------------------
 ! X1    R(1,-1)                -1.9643         Frozen                          !
 ! Y1    R(1,-2)                -1.4272         Frozen                          !
 ! Z1    R(1,-3)                 2.5993         Frozen                          !
 ! X2    R(2,-1)                -2.9667         Frozen                          !
 ! Y2    R(2,-2)                -0.6989         Frozen                          !
 ! Z2    R(2,-3)                 1.8335         Frozen                          !
 ! X3    R(3,-1)                -2.9667         Frozen                          !
 ! Y3    R(3,-2)                 0.6989         Frozen                          !
 ! Z3    R(3,-3)                 1.8335         Frozen                          !
 ! X4    R(4,-1)                -1.9643         Frozen                          !
 ! Y4    R(4,-2)                 1.4272         Frozen                          !
 ! Z4    R(4,-3)                 2.5993         Frozen                          !
 ! X5    R(5,-1)                -1.0024         Frozen                          !
 ! Y5    R(5,-2)                 0.7283         Frozen                          !
 ! Z5    R(5,-3)                 3.3341         Frozen                          !
 ! X6    R(6,-1)                -1.0024         Frozen                          !
 ! Y6    R(6,-2)                -0.7283         Frozen                          !
 ! Z6    R(6,-3)                 3.3341         Frozen                          !
 ! X7    R(7,-1)                -3.2033         Frozen                          !
 ! Y7    R(7,-2)                -1.4272         Frozen                          !
 ! Z7    R(7,-3)                 0.5945         Frozen                          !
 ! X8    R(8,-1)                -3.2033         Frozen                          !
 ! Y8    R(8,-2)                 1.4272         Frozen                          !
 ! Z8    R(8,-3)                 0.5945         Frozen                          !
 ! X9    R(9,-1)                -1.5815         Frozen                          !
 ! Y9    R(9,-2)                 2.6055         Frozen                          !
 ! Z9    R(9,-3)                 1.8335         Frozen                          !
 ! X10   R(10,-1)                0.3829         Frozen                          !
 ! Y10   R(10,-2)                1.1784         Frozen                          !
 ! Z10   R(10,-3)                3.3341         Frozen                          !
 ! X11   R(11,-1)                0.3829         Frozen                          !
 ! Y11   R(11,-2)               -1.1784         Frozen                          !
 ! Z11   R(11,-3)                3.3341         Frozen                          !
 ! X12   R(12,-1)               -1.5815         Frozen                          !
 ! Y12   R(12,-2)               -2.6055         Frozen                          !
 ! Z12   R(12,-3)                1.8335         Frozen                          !
 ! X13   R(13,-1)                0.7503         Frozen                          !
 ! Y13   R(13,-2)                2.3092         Frozen                          !
 ! Z13   R(13,-3)                2.5993         Frozen                          !
 ! X14   R(14,-1)               -0.2521         Frozen                          !
 ! Y14   R(14,-2)                3.0375         Frozen                          !
 ! Z14   R(14,-3)                1.8335         Frozen                          !
 ! X15   R(15,-1)                1.9893         Frozen                          !
 ! Y15   R(15,-2)                2.3092         Frozen                          !
 ! Z15   R(15,-3)                1.8335         Frozen                          !
 ! X16   R(16,-1)                0.3674         Frozen                          !
 ! Y16   R(16,-2)                3.4876         Frozen                          !
 ! Z16   R(16,-3)                0.5945         Frozen                          !
 ! X17   R(17,-1)               -3.4304         Frozen                          !
 ! Y17   R(17,-2)               -0.7283         Frozen                          !
 ! Z17   R(17,-3)               -0.5945         Frozen                          !
 ! X18   R(18,-1)               -2.3472         Frozen                          !
 ! Y18   R(18,-2)                2.6055         Frozen                          !
 ! Z18   R(18,-3)                0.5945         Frozen                          !
 ! X19   R(19,-1)                1.7527         Frozen                          !
 ! Y19   R(19,-2)                3.0375         Frozen                          !
 ! Z19   R(19,-3)                0.5945         Frozen                          !
 ! X20   R(20,-1)               -1.7527         Frozen                          !
 ! Y20   R(20,-2)                3.0375         Frozen                          !
 ! Z20   R(20,-3)               -0.5945         Frozen                          !
 ! X21   R(21,-1)               -3.4304         Frozen                          !
 ! Y21   R(21,-2)                0.7283         Frozen                          !
 ! Z21   R(21,-3)               -0.5945         Frozen                          !
 ! X22   R(22,-1)                1.239          Frozen                          !
 ! Y22   R(22,-2)                0.0            Frozen                          !
 ! Z22   R(22,-3)                3.3341         Frozen                          !
 ! X23   R(23,-1)                0.7503         Frozen                          !
 ! Y23   R(23,-2)               -2.3092         Frozen                          !
 ! Z23   R(23,-3)                2.5993         Frozen                          !
 ! X24   R(24,-1)               -2.8109         Frozen                          !
 ! Y24   R(24,-2)               -1.1784         Frozen                          !
 ! Z24   R(24,-3)               -1.8335         Frozen                          !
 ! X25   R(25,-1)               -0.2521         Frozen                          !
 ! Y25   R(25,-2)               -3.0375         Frozen                          !
 ! Z25   R(25,-3)                1.8335         Frozen                          !
 ! X26   R(26,-1)               -2.3472         Frozen                          !
 ! Y26   R(26,-2)               -2.6055         Frozen                          !
 ! Z26   R(26,-3)                0.5945         Frozen                          !
 ! X27   R(27,-1)                1.9893         Frozen                          !
 ! Y27   R(27,-2)               -2.3092         Frozen                          !
 ! Z27   R(27,-3)                1.8335         Frozen                          !
 ! X28   R(28,-1)                0.3674         Frozen                          !
 ! Y28   R(28,-2)               -3.4876         Frozen                          !
 ! Z28   R(28,-3)                0.5945         Frozen                          !
 ! X29   R(29,-1)               -1.7527         Frozen                          !
 ! Y29   R(29,-2)               -3.0375         Frozen                          !
 ! Z29   R(29,-3)               -0.5945         Frozen                          !
 ! X30   R(30,-1)               -0.3674         Frozen                          !
 ! Y30   R(30,-2)                3.4876         Frozen                          !
 ! Z30   R(30,-3)               -0.5945         Frozen                          !
 ! X31   R(31,-1)                2.428          Frozen                          !
 ! Y31   R(31,-2)                0.0            Frozen                          !
 ! Z31   R(31,-3)                2.5993         Frozen                          !
 ! X32   R(32,-1)               -2.8109         Frozen                          !
 ! Y32   R(32,-2)                1.1784         Frozen                          !
 ! Z32   R(32,-3)               -1.8335         Frozen                          !
 ! X33   R(33,-1)                1.7527         Frozen                          !
 ! Y33   R(33,-2)               -3.0375         Frozen                          !
 ! Z33   R(33,-3)                0.5945         Frozen                          !
 ! X34   R(34,-1)               -0.3674         Frozen                          !
 ! Y34   R(34,-2)               -3.4876         Frozen                          !
 ! Z34   R(34,-3)               -0.5945         Frozen                          !
 ! X35   R(35,-1)               -1.9893         Frozen                          !
 ! Y35   R(35,-2)               -2.3092         Frozen                          !
 ! Z35   R(35,-3)               -1.8335         Frozen                          !
 ! X36   R(36,-1)               -0.7503         Frozen                          !
 ! Y36   R(36,-2)               -2.3092         Frozen                          !
 ! Z36   R(36,-3)               -2.5993         Frozen                          !
 ! X37   R(37,-1)               -2.428          Frozen                          !
 ! Y37   R(37,-2)                0.0            Frozen                          !
 ! Z37   R(37,-3)               -2.5993         Frozen                          !
 ! X38   R(38,-1)               -1.9893         Frozen                          !
 ! Y38   R(38,-2)                2.3092         Frozen                          !
 ! Z38   R(38,-3)               -1.8335         Frozen                          !
 ! X39   R(39,-1)               -0.7503         Frozen                          !
 ! Y39   R(39,-2)                2.3092         Frozen                          !
 ! Z39   R(39,-3)               -2.5993         Frozen                          !
 ! X40   R(40,-1)                0.2521         Frozen                          !
 ! Y40   R(40,-2)               -3.0375         Frozen                          !
 ! Z40   R(40,-3)               -1.8335         Frozen                          !
 ! X41   R(41,-1)                1.5815         Frozen                          !
 ! Y41   R(41,-2)               -2.6055         Frozen                          !
 ! Z41   R(41,-3)               -1.8335         Frozen                          !
 ! X42   R(42,-1)                1.9643         Frozen                          !
 ! Y42   R(42,-2)               -1.4272         Frozen                          !
 ! Z42   R(42,-3)               -2.5993         Frozen                          !
 ! X43   R(43,-1)                2.3472         Frozen                          !
 ! Y43   R(43,-2)               -2.6055         Frozen                          !
 ! Z43   R(43,-3)               -0.5945         Frozen                          !
 ! X44   R(44,-1)                2.8109         Frozen                          !
 ! Y44   R(44,-2)                1.1784         Frozen                          !
 ! Z44   R(44,-3)                1.8335         Frozen                          !
 ! X45   R(45,-1)               -0.3829         Frozen                          !
 ! Y45   R(45,-2)                1.1784         Frozen                          !
 ! Z45   R(45,-3)               -3.3341         Frozen                          !
 ! X46   R(46,-1)                2.8109         Frozen                          !
 ! Y46   R(46,-2)               -1.1784         Frozen                          !
 ! Z46   R(46,-3)                1.8335         Frozen                          !
 ! X47   R(47,-1)                3.4304         Frozen                          !
 ! Y47   R(47,-2)               -0.7283         Frozen                          !
 ! Z47   R(47,-3)                0.5945         Frozen                          !
 ! X48   R(48,-1)               -1.239          Frozen                          !
 ! Y48   R(48,-2)                0.0            Frozen                          !
 ! Z48   R(48,-3)               -3.3341         Frozen                          !
 ! X49   R(49,-1)                0.2521         Frozen                          !
 ! Y49   R(49,-2)                3.0375         Frozen                          !
 ! Z49   R(49,-3)               -1.8335         Frozen                          !
 ! X50   R(50,-1)                1.5815         Frozen                          !
 ! Y50   R(50,-2)                2.6055         Frozen                          !
 ! Z50   R(50,-3)               -1.8335         Frozen                          !
 ! X51   R(51,-1)               -0.3829         Frozen                          !
 ! Y51   R(51,-2)               -1.1784         Frozen                          !
 ! Z51   R(51,-3)               -3.3341         Frozen                          !
 ! X52   R(52,-1)                1.0024         Frozen                          !
 ! Y52   R(52,-2)               -0.7283         Frozen                          !
 ! Z52   R(52,-3)               -3.3341         Frozen                          !
 ! X53   R(53,-1)                3.2033         Frozen                          !
 ! Y53   R(53,-2)               -1.4272         Frozen                          !
 ! Z53   R(53,-3)               -0.5945         Frozen                          !
 ! X54   R(54,-1)                2.9667         Frozen                          !
 ! Y54   R(54,-2)               -0.6989         Frozen                          !
 ! Z54   R(54,-3)               -1.8335         Frozen                          !
 ! X55   R(55,-1)                1.0024         Frozen                          !
 ! Y55   R(55,-2)                0.7283         Frozen                          !
 ! Z55   R(55,-3)               -3.3341         Frozen                          !
 ! X56   R(56,-1)                3.4304         Frozen                          !
 ! Y56   R(56,-2)                0.7283         Frozen                          !
 ! Z56   R(56,-3)                0.5945         Frozen                          !
 ! X57   R(57,-1)                2.3472         Frozen                          !
 ! Y57   R(57,-2)                2.6055         Frozen                          !
 ! Z57   R(57,-3)               -0.5945         Frozen                          !
 ! X58   R(58,-1)                1.9643         Frozen                          !
 ! Y58   R(58,-2)                1.4272         Frozen                          !
 ! Z58   R(58,-3)               -2.5993         Frozen                          !
 ! X59   R(59,-1)                3.2033         Frozen                          !
 ! Y59   R(59,-2)                1.4272         Frozen                          !
 ! Z59   R(59,-3)               -0.5945         Frozen                          !
 ! X60   R(60,-1)                2.9667         Frozen                          !
 ! Y60   R(60,-2)                0.6989         Frozen                          !
 ! Z60   R(60,-3)               -1.8335         Frozen                          !
 ! R1    R(2,62)                 2.5351         estimate D2E/DX2                !
 ! R2    R(16,61)                2.6192         estimate D2E/DX2                !
 ! R3    R(19,61)                2.4996         estimate D2E/DX2                !
 ! R4    R(50,61)                2.5703         estimate D2E/DX2                !
 ! R5    R(57,61)                2.4746         estimate D2E/DX2                !
 ! R6    R(61,62)                1.9531         estimate D2E/DX2                !
 ! R7    R(61,63)                1.9577         estimate D2E/DX2                !
 ! R8    R(62,63)                1.9531         estimate D2E/DX2                !
 ! A1    A(1,2,62)              87.5495         estimate D2E/DX2                !
 ! A2    A(3,2,62)              73.9969         estimate D2E/DX2                !
 ! A3    A(7,2,62)              74.3773         estimate D2E/DX2                !
 ! A4    A(14,16,61)            88.2747         estimate D2E/DX2                !
 ! A5    A(30,16,61)            78.2546         estimate D2E/DX2                !
 ! A6    A(15,19,61)            85.2092         estimate D2E/DX2                !
 ! A7    A(49,50,61)            79.0391         estimate D2E/DX2                !
 ! A8    A(58,50,61)            86.6366         estimate D2E/DX2                !
 ! A9    A(59,57,61)            84.1268         estimate D2E/DX2                !
 ! A10   A(16,61,50)            66.729          estimate D2E/DX2                !
 ! A11   A(16,61,57)            57.9827         estimate D2E/DX2                !
 ! A12   A(16,61,62)           111.5495         estimate D2E/DX2                !
 ! A13   A(16,61,63)           163.2997         estimate D2E/DX2                !
 ! A14   A(19,61,50)            58.3464         estimate D2E/DX2                !
 ! A15   A(19,61,62)           139.5007         estimate D2E/DX2                !
 ! A16   A(19,61,63)           145.4459         estimate D2E/DX2                !
 ! A17   A(50,61,62)           142.5541         estimate D2E/DX2                !
 ! A18   A(50,61,63)           129.2631         estimate D2E/DX2                !
 ! A19   A(57,61,63)           131.0985         estimate D2E/DX2                !
 ! A20   A(2,62,61)            152.0996         estimate D2E/DX2                !
 ! A21   A(2,62,63)            127.4042         estimate D2E/DX2                !
 ! A22   L(57,61,62,16,-1)     169.5322         estimate D2E/DX2                !
 ! A23   L(57,61,62,16,-2)     176.1096         estimate D2E/DX2                !
 ! D1    D(6,1,2,62)            69.9197         estimate D2E/DX2                !
 ! D2    D(12,1,2,62)          -72.703          estimate D2E/DX2                !
 ! D3    D(62,2,3,4)           -77.4702         estimate D2E/DX2                !
 ! D4    D(62,2,3,8)            60.7195         estimate D2E/DX2                !
 ! D5    D(62,2,7,17)          -60.5282         estimate D2E/DX2                !
 ! D6    D(62,2,7,26)           82.0945         estimate D2E/DX2                !
 ! D7    D(1,2,62,61)          -67.1278         estimate D2E/DX2                !
 ! D8    D(1,2,62,63)           28.9182         estimate D2E/DX2                !
 ! D9    D(3,2,62,61)           55.0744         estimate D2E/DX2                !
 ! D10   D(3,2,62,63)          151.1203         estimate D2E/DX2                !
 ! D11   D(7,2,62,61)         -176.5868         estimate D2E/DX2                !
 ! D12   D(7,2,62,63)          -80.5408         estimate D2E/DX2                !
 ! D13   D(9,14,16,61)         -75.3715         estimate D2E/DX2                !
 ! D14   D(13,14,16,61)         67.2512         estimate D2E/DX2                !
 ! D15   D(13,15,19,61)        -75.7634         estimate D2E/DX2                !
 ! D16   D(44,15,19,61)         66.8592         estimate D2E/DX2                !
 ! D17   D(61,16,30,20)         81.0514         estimate D2E/DX2                !
 ! D18   D(61,16,30,49)        -57.1383         estimate D2E/DX2                !
 ! D19   D(14,16,61,50)       -177.2894         estimate D2E/DX2                !
 ! D20   D(14,16,61,57)       -140.5866         estimate D2E/DX2                !
 ! D21   D(14,16,61,62)         43.3038         estimate D2E/DX2                !
 ! D22   D(14,16,61,63)        -12.7251         estimate D2E/DX2                !
 ! D23   D(30,16,61,50)         61.5668         estimate D2E/DX2                !
 ! D24   D(30,16,61,57)         98.2696         estimate D2E/DX2                !
 ! D25   D(30,16,61,62)        -77.84           estimate D2E/DX2                !
 ! D26   D(30,16,61,63)       -133.8689         estimate D2E/DX2                !
 ! D27   D(15,19,61,50)       -154.8358         estimate D2E/DX2                !
 ! D28   D(15,19,61,62)         69.5794         estimate D2E/DX2                !
 ! D29   D(15,19,61,63)        -40.276          estimate D2E/DX2                !
 ! D30   D(30,49,50,61)         58.6072         estimate D2E/DX2                !
 ! D31   D(39,49,50,61)        -79.5825         estimate D2E/DX2                !
 ! D32   D(61,50,58,55)         75.2938         estimate D2E/DX2                !
 ! D33   D(61,50,58,60)        -67.3289         estimate D2E/DX2                !
 ! D34   D(49,50,61,16)        -61.2777         estimate D2E/DX2                !
 ! D35   D(49,50,61,19)        -97.3894         estimate D2E/DX2                !
 ! D36   D(49,50,61,62)         34.2331         estimate D2E/DX2                !
 ! D37   D(49,50,61,63)        124.3916         estimate D2E/DX2                !
 ! D38   D(58,50,61,16)        177.2859         estimate D2E/DX2                !
 ! D39   D(58,50,61,19)        141.1742         estimate D2E/DX2                !
 ! D40   D(58,50,61,62)        -87.2033         estimate D2E/DX2                !
 ! D41   D(58,50,61,63)          2.9552         estimate D2E/DX2                !
 ! D42   D(61,57,59,56)        -68.5076         estimate D2E/DX2                !
 ! D43   D(61,57,59,60)         74.115          estimate D2E/DX2                !
 ! D44   D(59,57,61,16)        154.1673         estimate D2E/DX2                !
 ! D45   D(59,57,61,63)         -8.3113         estimate D2E/DX2                !
 ! D46   D(59,57,62,2)         116.0657         estimate D2E/DX2                !
 ! D47   D(16,61,62,2)         -49.6236         estimate D2E/DX2                !
 ! D48   D(19,61,62,2)         -27.5504         estimate D2E/DX2                !
 ! D49   D(50,61,62,2)        -129.0812         estimate D2E/DX2                !
 --------------------------------------------------------------------------------
 Trust Radius=3.00D-01 FncErr=1.00D-07 GrdErr=1.00D-07 EigMax=2.50D+02 EigMin=1.00D-04
 Number of steps in this run=    270 maximum allowed number of steps=    378.
 GradGradGradGradGradGradGradGradGradGradGradGradGradGradGradGradGradGrad

 Leave Link  103 at Mon Apr  8 09:24:39 2024, MaxMem=  6442450944 cpu:               0.4 elap:               0.1
 (Enter /usr/local/g16/l202.exe)
 Stoichiometry    C60He3
 Framework group  CS[SG(C4He),X(C56He2)]
 Deg. of freedom    94
 Full point group                 CS      NOp   2
 Largest Abelian subgroup         CS      NOp   2
 Largest concise Abelian subgroup CS      NOp   2
                         Standard orientation:                         
 ---------------------------------------------------------------------
 Center     Atomic      Atomic             Coordinates (Angstroms)
 Number     Number       Type             X           Y           Z
 ---------------------------------------------------------------------
      1          6           0        2.599339    1.964200    1.427172
      2          6           0        1.833594    2.966573    0.698905
      3          6           0        1.833594    2.966573   -0.698905
      4          6           0        2.599339    1.964200   -1.427172
      5          6           0        3.334211    1.002240   -0.728267
      6          6           0        3.334211    1.002240    0.728267
      7          6           0        0.594592    3.203202    1.427172
      8          6           0        0.594592    3.203202   -1.427172
      9          6           0        1.833594    1.581327   -2.605532
     10          6           0        3.334211   -0.383006   -1.178361
     11          6           0        3.334211   -0.383006    1.178361
     12          6           0        1.833594    1.581327    2.605532
     13          6           0        2.599339   -0.750442   -2.309212
     14          6           0        1.833594    0.251932   -3.037479
     15          6           0        1.833594   -1.989444   -2.309212
     16          6           0        0.594592   -0.367569   -3.487573
     17          6           0       -0.594455    3.430289    0.728267
     18          6           0        0.594592    2.347072   -2.605532
     19          6           0        0.594592   -1.752815   -3.037479
     20          6           0       -0.594455    1.752549   -3.037479
     21          6           0       -0.594455    3.430289   -0.728267
     22          6           0        3.334211   -1.239135   -0.000000
     23          6           0        2.599339   -0.750442    2.309212
     24          6           0       -1.833457    2.810789    1.178361
     25          6           0        1.833594    0.251932    3.037479
     26          6           0        0.594592    2.347072    2.605532
     27          6           0        1.833594   -1.989444    2.309212
     28          6           0        0.594592   -0.367569    3.487573
     29          6           0       -0.594455    1.752549    3.037479
     30          6           0       -0.594455    0.367303   -3.487573
     31          6           0        2.599339   -2.428183    0.000000
     32          6           0       -1.833457    2.810789   -1.178361
     33          6           0        0.594592   -1.752815    3.037479
     34          6           0       -0.594455    0.367303    3.487573
     35          6           0       -1.833457    1.989177    2.309212
     36          6           0       -2.599202    0.750175    2.309212
     37          6           0       -2.599202    2.427916   -0.000000
     38          6           0       -1.833457    1.989177   -2.309212
     39          6           0       -2.599202    0.750175   -2.309212
     40          6           0       -1.833457   -0.252198    3.037479
     41          6           0       -1.833457   -1.581594    2.605532
     42          6           0       -2.599202   -1.964466    1.427172
     43          6           0       -0.594455   -2.347339    2.605532
     44          6           0        1.833594   -2.811055   -1.178361
     45          6           0       -3.334074    0.382739   -1.178361
     46          6           0        1.833594   -2.811055    1.178361
     47          6           0        0.594592   -3.430556    0.728267
     48          6           0       -3.334074    1.238868    0.000000
     49          6           0       -1.833457   -0.252198   -3.037479
     50          6           0       -1.833457   -1.581594   -2.605532
     51          6           0       -3.334074    0.382739    1.178361
     52          6           0       -3.334074   -1.002507    0.728267
     53          6           0       -0.594455   -3.203468    1.427172
     54          6           0       -1.833457   -2.966840    0.698905
     55          6           0       -3.334074   -1.002507   -0.728267
     56          6           0        0.594592   -3.430556   -0.728267
     57          6           0       -0.594455   -2.347339   -2.605532
     58          6           0       -2.599202   -1.964466   -1.427172
     59          6           0       -0.594455   -3.203468   -1.427172
     60          6           0       -1.833457   -2.966840   -0.698905
     61          2           0       -0.138256   -0.539179   -0.978828
     62          2           0        0.264176    1.102355   -0.000000
     63          2           0       -0.138256   -0.539179    0.978828
 ---------------------------------------------------------------------
 Rotational constants (GHZ):           0.0831417           0.0831412           0.0830627
 Leave Link  202 at Mon Apr  8 09:24:40 2024, MaxMem=  6442450944 cpu:               0.3 elap:               0.0
 (Enter /usr/local/g16/l301.exe)
 General basis read from cards:  (5D, 7F)
 Centers:       1      2      3      4      5      6      7      8      9     10
 Centers:      11     12     13     14     15     16     17     18     19     20
 Centers:      21     22     23     24     25     26     27     28     29     30
 Centers:      31     32     33     34     35     36     37     38     39     40
 Centers:      41     42     43     44     45     46     47     48     49     50
 Centers:      51     52     53     54     55     56     57     58     59     60
 6-311G
 ********
 Centers:      61     62     63
 cc-pVTZ
 ********
 Ernie: Thresh=  0.10000D-02 Tol=  0.10000D-05 Strict=F.
 There are   430 symmetry adapted cartesian basis functions of A'  symmetry.
 There are   395 symmetry adapted cartesian basis functions of A"  symmetry.
 There are   428 symmetry adapted basis functions of A'  symmetry.
 There are   394 symmetry adapted basis functions of A"  symmetry.
   822 basis functions,  1614 primitive gaussians,   825 cartesian basis functions
   183 alpha electrons      183 beta electrons
       nuclear repulsion energy      8635.0811022725 Hartrees.
 IExCor=    0 DFT=F Ex=HF Corr=None ExCW=0 ScaHFX=  1.000000
 ScaDFX=  1.000000  1.000000  1.000000  1.000000 ScalE2=  1.000000  1.000000
 IRadAn=      5 IRanWt=     -1 IRanGd=            0 ICorTp=0 IEmpDi=  4
 NAtoms=   63 NActive=   63 NUniq=   34 SFac= 3.43D+00 NAtFMM=   60 NAOKFM=T Big=F
 Integral buffers will be    131072 words long.
 Raffenetti 1 integral format.
 Two-electron integral symmetry is turned on.
 Leave Link  301 at Mon Apr  8 09:24:40 2024, MaxMem=  6442450944 cpu:               2.0 elap:               0.1
 (Enter /usr/local/g16/l302.exe)
 NPDir=0 NMtPBC=     1 NCelOv=     1 NCel=       1 NClECP=     1 NCelD=      1
         NCelK=      1 NCelE2=     1 NClLst=     1 CellRange=     0.0.
 One-electron integrals computed using PRISM.
 One-electron integral symmetry used in STVInt
 NBasis=   822 RedAO= T EigKep=  1.04D-04  NBF=   428   394
 NBsUse=   822 1.00D-06 EigRej= -1.00D+00 NBFU=   428   394
 Leave Link  302 at Mon Apr  8 09:24:42 2024, MaxMem=  6442450944 cpu:              21.9 elap:               1.0
 (Enter /usr/local/g16/l303.exe)
 DipDrv:  MaxL=1.
 Leave Link  303 at Mon Apr  8 09:24:43 2024, MaxMem=  6442450944 cpu:               4.1 elap:               0.2
 (Enter /usr/local/g16/l401.exe)
 ExpMin= 1.46D-01 ExpMax= 4.56D+03 ExpMxC= 6.82D+02 IAcc=3 IRadAn=         5 AccDes= 0.00D+00
 Harris functional with IExCor=  205 and IRadAn=       5 diagonalized for initial guess.
 HarFok:  IExCor=  205 AccDes= 0.00D+00 IRadAn=         5 IDoV= 1 UseB2=F ITyADJ=14
 ICtDFT=  3500011 ScaDFX=  1.000000  1.000000  1.000000  1.000000
 FoFCou: FMM=F IPFlag=           0 FMFlag=      100000 FMFlg1=        2000
         NFxFlg=           0 DoJE=T BraDBF=F KetDBF=T FulRan=T
         wScrn=  0.000000 ICntrl=       500 IOpCl=  0 I1Cent=   200000004 NGrid=           0
         NMat0=    1 NMatS0=      1 NMatT0=    0 NMatD0=    1 NMtDS0=    0 NMtDT0=    0
 Petite list used in FoFCou.
 Harris En= -2282.17853124434    
 JPrj=0 DoOrth=F DoCkMO=F.
 Initial guess orbital symmetries:
       Occupied  (A') (A") (A') (A') (A') (A') (A") (A') (A") (A')
                 (A") (A') (A") (A') (A") (A") (A') (A") (A') (A")
                 (A') (A') (A') (A") (A") (A') (A") (A') (A") (A')
                 (A") (A') (A") (A") (A') (A') (A") (A') (A') (A")
                 (A") (A') (A') (A") (A') (A") (A') (A") (A') (A')
                 (A") (A") (A') (A') (A") (A") (A') (A") (A") (A')
                 (A') (A') (A") (A') (A") (A') (A') (A") (A') (A")
                 (A') (A') (A') (A") (A') (A") (A') (A') (A") (A')
                 (A") (A") (A') (A') (A") (A') (A") (A') (A") (A")
                 (A") (A') (A') (A') (A') (A") (A') (A") (A') (A')
                 (A") (A") (A') (A") (A') (A') (A") (A') (A") (A')
                 (A") (A') (A') (A") (A") (A') (A') (A") (A') (A")
                 (A') (A") (A') (A') (A") (A') (A") (A') (A") (A')
                 (A") (A') (A') (A") (A') (A") (A') (A') (A") (A')
                 (A") (A") (A') (A") (A') (A') (A") (A") (A') (A')
                 (A") (A') (A") (A') (A') (A") (A') (A") (A') (A")
                 (A') (A") (A") (A') (A') (A") (A') (A') (A") (A')
                 (A") (A') (A") (A') (A') (A") (A') (A") (A") (A')
                 (A") (A') (A")
       Virtual   (A') (A') (A") (A") (A') (A") (A') (A') (A") (A")
                 (A') (A") (A') (A') (A') (A") (A') (A") (A") (A")
                 (A') (A') (A") (A') (A") (A") (A') (A') (A") (A")
                 (A') (A') (A") (A') (A") (A') (A") (A') (A') (A")
                 (A") (A') (A") (A') (A") (A") (A') (A') (A") (A')
                 (A") (A') (A') (A') (A") (A') (A") (A") (A") (A')
                 (A') (A") (A") (A') (A') (A') (A") (A') (A") (A")
                 (A') (A') (A") (A') (A") (A') (A") (A') (A') (A")
                 (A') (A") (A') (A") (A') (A") (A") (A') (A') (A")
                 (A') (A") (A") (A') (A') (A") (A') (A') (A") (A')
                 (A') (A") (A") (A') (A') (A') (A") (A') (A') (A")
                 (A') (A") (A') (A") (A') (A') (A") (A') (A") (A")
                 (A') (A") (A') (A') (A") (A') (A') (A") (A') (A")
                 (A") (A') (A") (A') (A") (A") (A') (A') (A") (A')
                 (A') (A") (A') (A") (A') (A") (A') (A") (A') (A")
                 (A') (A') (A") (A") (A') (A") (A') (A") (A') (A")
                 (A") (A') (A") (A') (A") (A') (A") (A') (A") (A")
                 (A') (A') (A") (A') (A") (A") (A') (A") (A') (A")
                 (A") (A') (A") (A') (A") (A") (A") (A') (A") (A')
                 (A') (A') (A") (A') (A") (A') (A") (A") (A') (A')
                 (A") (A') (A") (A") (A') (A") (A") (A') (A') (A')
                 (A") (A") (A') (A") (A') (A') (A') (A") (A') (A')
                 (A") (A') (A") (A") (A') (A") (A') (A") (A') (A")
                 (A') (A") (A') (A") (A') (A') (A') (A") (A') (A")
                 (A') (A") (A') (A') (A") (A') (A") (A') (A') (A")
                 (A') (A") (A') (A') (A") (A') (A') (A") (A") (A')
                 (A") (A') (A") (A") (A") (A') (A') (A") (A') (A')
                 (A") (A') (A") (A') (A") (A') (A") (A') (A") (A')
                 (A") (A') (A") (A') (A") (A') (A") (A") (A') (A")
                 (A') (A") (A') (A") (A') (A') (A') (A") (A') (A")
                 (A") (A") (A') (A") (A') (A") (A') (A") (A') (A")
                 (A') (A") (A') (A') (A") (A') (A") (A") (A') (A")
                 (A') (A") (A") (A') (A") (A') (A") (A") (A") (A')
                 (A") (A') (A') (A") (A') (A') (A") (A") (A') (A")
                 (A') (A") (A') (A") (A") (A') (A") (A") (A') (A")
                 (A') (A") (A') (A") (A") (A') (A') (A") (A') (A")
                 (A") (A") (A') (A') (A") (A') (A") (A") (A") (A')
                 (A") (A') (A') (A") (A') (A') (A') (A") (A') (A")
                 (A') (A') (A") (A') (A") (A") (A') (A") (A') (A")
                 (A') (A") (A') (A") (A') (A') (A") (A') (A") (A')
                 (A') (A") (A') (A') (A") (A") (A') (A') (A") (A")
                 (A") (A') (A') (A") (A") (A') (A") (A') (A") (A')
                 (A") (A') (A') (A') (A") (A') (A") (A") (A') (A')
                 (A") (A') (A") (A") (A') (A') (A") (A') (A') (A")
                 (A") (A') (A') (A") (A") (A") (A') (A") (A') (A')
                 (A") (A') (A") (A') (A") (A') (A") (A') (A") (A')
                 (A') (A") (A') (A") (A') (A") (A') (A") (A') (A")
                 (A') (A") (A') (A") (A') (A') (A") (A') (A") (A')
                 (A') (A") (A") (A') (A') (A") (A") (A") (A') (A')
                 (A") (A') (A') (A') (A") (A') (A") (A") (A') (A")
                 (A') (A") (A') (A") (A') (A') (A") (A") (A') (A")
                 (A") (A') (A") (A") (A') (A") (A') (A') (A") (A")
                 (A') (A') (A') (A") (A') (A") (A') (A") (A") (A')
                 (A') (A") (A") (A') (A') (A") (A") (A') (A") (A')
                 (A") (A") (A') (A") (A') (A') (A") (A") (A") (A')
                 (A") (A") (A') (A') (A") (A') (A") (A') (A") (A')
                 (A") (A') (A') (A") (A") (A') (A') (A") (A") (A')
                 (A') (A") (A') (A') (A") (A') (A") (A") (A') (A')
                 (A') (A') (A") (A") (A') (A') (A") (A') (A") (A')
                 (A") (A') (A') (A') (A") (A") (A') (A') (A") (A')
                 (A") (A') (A') (A") (A') (A") (A') (A") (A') (A')
                 (A") (A') (A") (A') (A") (A") (A') (A') (A") (A')
                 (A") (A') (A") (A') (A") (A") (A') (A") (A') (A")
                 (A') (A") (A') (A") (A") (A') (A') (A") (A")
 The electronic state of the initial guess is 1-A'.
 Leave Link  401 at Mon Apr  8 09:24:46 2024, MaxMem=  6442450944 cpu:              71.3 elap:               3.0
 (Enter /usr/local/g16/l502.exe)
 Integral symmetry usage will be decided dynamically.
 Closed shell SCF:
 Using DIIS extrapolation, IDIIS=  1040.
 NGot=  6442450944 LenX=  6441059584 LenY=  6440378134
 Requested convergence on RMS density matrix=1.00D-08 within 128 cycles.
 Requested convergence on MAX density matrix=1.00D-06.
 Requested convergence on             energy=1.00D-06.
 No special actions if energy rises.
 Fock matrices will be formed incrementally for  20 cycles.
 Integral accuracy reduced to 1.0D-05 until final iterations.

 Cycle   1  Pass 0  IDiag  1:
 FoFJK:  IHMeth= 1 ICntrl=       0 DoSepK=F KAlg= 0 I1Cent=           0 FoldK=F
 IRaf= 730000000 NMat=       1 IRICut=       1 DoRegI=T DoRafI=F ISym2E= 1 IDoP0=0 IntGTp=1.
 FoFCou: FMM=F IPFlag=           0 FMFlag=      100000 FMFlg1=        2000
         NFxFlg=           0 DoJE=F BraDBF=F KetDBF=F FulRan=T
         wScrn=  0.000000 ICntrl=         0 IOpCl=  0 I1Cent=           0 NGrid=           0
         NMat0=    1 NMatS0=      1 NMatT0=    0 NMatD0=    1 NMtDS0=    0 NMtDT0=    0
 Petite list used in FoFCou.
 E= -2278.58722423472    
 DIIS: error= 6.08D-02 at cycle   1 NSaved=   1.
 NSaved= 1 IEnMin= 1 EnMin= -2278.58722423472     IErMin= 1 ErrMin= 6.08D-02
 ErrMax= 6.08D-02  0.00D+00 EMaxC= 1.00D-01 BMatC= 3.50D+00 BMatP= 3.50D+00
 IDIUse=3 WtCom= 3.92D-01 WtEn= 6.08D-01
 Coeff-Com:  0.100D+01
 Coeff-En:   0.100D+01
 Coeff:      0.100D+01
 Gap=     0.260 Goal=   None    Shift=    0.000
 GapD=    0.260 DampG=1.000 DampE=0.500 DampFc=0.5000 IDamp=-1.
 Damping current iteration by 5.00D-01
 RMSDP=2.44D-03 MaxDP=4.13D-02              OVMax= 9.96D-02

 Cycle   2  Pass 0  IDiag  1:
 RMSU=  1.21D-03    CP:  9.88D-01
 E= -2279.22734417441     Delta-E=       -0.640119939690 Rises=F Damp=T
 DIIS: error= 2.92D-02 at cycle   2 NSaved=   2.
 NSaved= 2 IEnMin= 2 EnMin= -2279.22734417441     IErMin= 2 ErrMin= 2.92D-02
 ErrMax= 2.92D-02  0.00D+00 EMaxC= 1.00D-01 BMatC= 9.40D-01 BMatP= 3.50D+00
 IDIUse=3 WtCom= 7.08D-01 WtEn= 2.92D-01
 Coeff-Com: -0.103D+01 0.203D+01
 Coeff-En:   0.000D+00 0.100D+01
 Coeff:     -0.729D+00 0.173D+01
 Gap=     0.262 Goal=   None    Shift=    0.000
 RMSDP=2.30D-03 MaxDP=8.49D-02 DE=-6.40D-01 OVMax= 2.38D-02

 Cycle   3  Pass 0  IDiag  1:
 RMSU=  1.66D-03    CP:  1.07D+00  2.12D+00
 E= -2279.86760329831     Delta-E=       -0.640259123900 Rises=F Damp=F
 DIIS: error= 3.06D-03 at cycle   3 NSaved=   3.
 NSaved= 3 IEnMin= 3 EnMin= -2279.86760329831     IErMin= 3 ErrMin= 3.06D-03
 ErrMax= 3.06D-03  0.00D+00 EMaxC= 1.00D-01 BMatC= 5.86D-03 BMatP= 9.40D-01
 IDIUse=3 WtCom= 9.69D-01 WtEn= 3.06D-02
 Coeff-Com: -0.204D+00 0.374D+00 0.830D+00
 Coeff-En:   0.000D+00 0.000D+00 0.100D+01
 Coeff:     -0.198D+00 0.363D+00 0.835D+00
 Gap=     0.262 Goal=   None    Shift=    0.000
 RMSDP=7.26D-04 MaxDP=4.00D-02 DE=-6.40D-01 OVMax= 9.68D-03

 Cycle   4  Pass 0  IDiag  1:
 RMSU=  3.81D-04    CP:  1.04D+00  2.20D+00  7.00D-01
 E= -2279.87376605852     Delta-E=       -0.006162760204 Rises=F Damp=F
 DIIS: error= 7.58D-04 at cycle   4 NSaved=   4.
 NSaved= 4 IEnMin= 4 EnMin= -2279.87376605852     IErMin= 4 ErrMin= 7.58D-04
 ErrMax= 7.58D-04  0.00D+00 EMaxC= 1.00D-01 BMatC= 2.46D-04 BMatP= 5.86D-03
 IDIUse=3 WtCom= 9.92D-01 WtEn= 7.58D-03
 Coeff-Com:  0.200D-01-0.420D-01 0.951D-01 0.927D+00
 Coeff-En:   0.000D+00 0.000D+00 0.000D+00 0.100D+01
 Coeff:      0.198D-01-0.417D-01 0.944D-01 0.927D+00
 Gap=     0.264 Goal=   None    Shift=    0.000
 RMSDP=1.41D-04 MaxDP=6.19D-03 DE=-6.16D-03 OVMax= 4.32D-03

 Cycle   5  Pass 0  IDiag  1:
 RMSU=  1.20D-04    CP:  1.04D+00  2.19D+00  7.31D-01  9.04D-01
 E= -2279.87426299688     Delta-E=       -0.000496938361 Rises=F Damp=F
 DIIS: error= 4.25D-04 at cycle   5 NSaved=   5.
 NSaved= 5 IEnMin= 5 EnMin= -2279.87426299688     IErMin= 5 ErrMin= 4.25D-04
 ErrMax= 4.25D-04  0.00D+00 EMaxC= 1.00D-01 BMatC= 1.99D-05 BMatP= 2.46D-04
 IDIUse=3 WtCom= 9.96D-01 WtEn= 4.25D-03
 Coeff-Com:  0.452D-02-0.734D-02-0.596D-01-0.232D+00 0.129D+01
 Coeff-En:   0.000D+00 0.000D+00 0.000D+00 0.000D+00 0.100D+01
 Coeff:      0.450D-02-0.731D-02-0.594D-01-0.231D+00 0.129D+01
 Gap=     0.265 Goal=   None    Shift=    0.000
 RMSDP=8.43D-05 MaxDP=1.89D-03 DE=-4.97D-04 OVMax= 2.99D-03

 Cycle   6  Pass 0  IDiag  1:
 RMSU=  3.50D-05    CP:  1.04D+00  2.19D+00  7.09D-01  9.13D-01  1.53D+00
 E= -2279.87431418665     Delta-E=       -0.000051189776 Rises=F Damp=F
 DIIS: error= 1.67D-04 at cycle   6 NSaved=   6.
 NSaved= 6 IEnMin= 6 EnMin= -2279.87431418665     IErMin= 6 ErrMin= 1.67D-04
 ErrMax= 1.67D-04  0.00D+00 EMaxC= 1.00D-01 BMatC= 4.91D-06 BMatP= 1.99D-05
 IDIUse=3 WtCom= 9.98D-01 WtEn= 1.67D-03
 Coeff-Com:  0.461D-03-0.191D-03-0.255D-01-0.136D+00 0.427D+00 0.734D+00
 Coeff-En:   0.000D+00 0.000D+00 0.000D+00 0.000D+00 0.000D+00 0.100D+01
 Coeff:      0.460D-03-0.190D-03-0.255D-01-0.136D+00 0.427D+00 0.734D+00
 Gap=     0.265 Goal=   None    Shift=    0.000
 RMSDP=2.46D-05 MaxDP=5.01D-04 DE=-5.12D-05 OVMax= 8.41D-04

 Cycle   7  Pass 0  IDiag  1:
 RMSU=  1.37D-05    CP:  1.04D+00  2.19D+00  7.03D-01  9.14D-01  1.66D+00
                    CP:  1.20D+00
 E= -2279.87432598443     Delta-E=       -0.000011797771 Rises=F Damp=F
 DIIS: error= 8.06D-05 at cycle   7 NSaved=   7.
 NSaved= 7 IEnMin= 7 EnMin= -2279.87432598443     IErMin= 7 ErrMin= 8.06D-05
 ErrMax= 8.06D-05  0.00D+00 EMaxC= 1.00D-01 BMatC= 1.02D-06 BMatP= 4.91D-06
 IDIUse=1 WtCom= 1.00D+00 WtEn= 0.00D+00
 Coeff-Com: -0.132D-02 0.226D-02 0.150D-01 0.498D-01-0.351D+00 0.194D+00
 Coeff-Com:  0.109D+01
 Coeff:     -0.132D-02 0.226D-02 0.150D-01 0.498D-01-0.351D+00 0.194D+00
 Coeff:      0.109D+01
 Gap=     0.265 Goal=   None    Shift=    0.000
 RMSDP=2.08D-05 MaxDP=4.90D-04 DE=-1.18D-05 OVMax= 6.05D-04

 Cycle   8  Pass 0  IDiag  1:
 RMSU=  8.40D-06    CP:  1.04D+00  2.19D+00  6.99D-01  9.20D-01  1.75D+00
                    CP:  1.54D+00  1.39D+00
 E= -2279.87432565352     Delta-E=        0.000000330903 Rises=F Damp=F
 DIIS: error= 2.06D-05 at cycle   8 NSaved=   8.
 NSaved= 8 IEnMin= 7 EnMin= -2279.87432598443     IErMin= 8 ErrMin= 2.06D-05
 ErrMax= 2.06D-05  0.00D+00 EMaxC= 1.00D-01 BMatC= 5.85D-08 BMatP= 1.02D-06
 IDIUse=1 WtCom= 1.00D+00 WtEn= 0.00D+00
 Coeff-Com: -0.200D-03 0.329D-03 0.228D-02 0.967D-02-0.514D-01-0.263D-02
 Coeff-Com:  0.114D+00 0.928D+00
 Coeff:     -0.200D-03 0.329D-03 0.228D-02 0.967D-02-0.514D-01-0.263D-02
 Coeff:      0.114D+00 0.928D+00
 Gap=     0.265 Goal=   None    Shift=    0.000
 RMSDP=9.49D-06 MaxDP=2.03D-04 DE= 3.31D-07 OVMax= 6.80D-05

 Initial convergence to 1.0D-05 achieved.  Increase integral accuracy.
 Cycle   9  Pass 1  IDiag  1:
 E= -2279.87407319962     Delta-E=        0.000252453905 Rises=F Damp=F
 DIIS: error= 6.78D-04 at cycle   1 NSaved=   1.
 NSaved= 1 IEnMin= 1 EnMin= -2279.87407319962     IErMin= 1 ErrMin= 6.78D-04
 ErrMax= 6.78D-04  0.00D+00 EMaxC= 1.00D-01 BMatC= 4.69D-05 BMatP= 4.69D-05
 IDIUse=3 WtCom= 9.93D-01 WtEn= 6.78D-03
 Coeff-Com:  0.100D+01
 Coeff-En:   0.100D+01
 Coeff:      0.100D+01
 Gap=     0.265 Goal=   None    Shift=    0.000
 RMSDP=9.49D-06 MaxDP=2.03D-04 DE= 2.52D-04 OVMax= 7.27D-04

 Cycle  10  Pass 1  IDiag  1:
 RMSU=  2.01D-04    CP:  1.00D+00
 E= -2279.87411273198     Delta-E=       -0.000039532364 Rises=F Damp=F
 DIIS: error= 2.85D-05 at cycle   2 NSaved=   2.
 NSaved= 2 IEnMin= 2 EnMin= -2279.87411273198     IErMin= 2 ErrMin= 2.85D-05
 ErrMax= 2.85D-05  0.00D+00 EMaxC= 1.00D-01 BMatC= 1.25D-07 BMatP= 4.69D-05
 IDIUse=1 WtCom= 1.00D+00 WtEn= 0.00D+00
 Coeff-Com: -0.411D-01 0.104D+01
 Coeff:     -0.411D-01 0.104D+01
 Gap=     0.265 Goal=   None    Shift=    0.000
 RMSDP=1.27D-05 MaxDP=2.22D-04 DE=-3.95D-05 OVMax= 7.45D-05

 Cycle  11  Pass 1  IDiag  1:
 RMSU=  3.62D-06    CP:  1.00D+00  1.06D+00
 E= -2279.87411292595     Delta-E=       -0.000000193966 Rises=F Damp=F
 DIIS: error= 3.02D-06 at cycle   3 NSaved=   3.
 NSaved= 3 IEnMin= 3 EnMin= -2279.87411292595     IErMin= 3 ErrMin= 3.02D-06
 ErrMax= 3.02D-06  0.00D+00 EMaxC= 1.00D-01 BMatC= 3.60D-09 BMatP= 1.25D-07
 IDIUse=1 WtCom= 1.00D+00 WtEn= 0.00D+00
 Coeff-Com: -0.268D-02 0.422D-01 0.960D+00
 Coeff:     -0.268D-02 0.422D-01 0.960D+00
 Gap=     0.265 Goal=   None    Shift=    0.000
 RMSDP=6.78D-07 MaxDP=2.10D-05 DE=-1.94D-07 OVMax= 2.02D-05

 Cycle  12  Pass 1  IDiag  1:
 RMSU=  4.38D-07    CP:  1.00D+00  1.06D+00  1.10D+00
 E= -2279.87411293019     Delta-E=       -0.000000004244 Rises=F Damp=F
 DIIS: error= 1.78D-06 at cycle   4 NSaved=   4.
 NSaved= 4 IEnMin= 4 EnMin= -2279.87411293019     IErMin= 4 ErrMin= 1.78D-06
 ErrMax= 1.78D-06  0.00D+00 EMaxC= 1.00D-01 BMatC= 2.04D-09 BMatP= 3.60D-09
 IDIUse=1 WtCom= 1.00D+00 WtEn= 0.00D+00
 Coeff-Com:  0.156D-02-0.509D-01 0.431D+00 0.619D+00
 Coeff:      0.156D-02-0.509D-01 0.431D+00 0.619D+00
 Gap=     0.265 Goal=   None    Shift=    0.000
 RMSDP=1.81D-07 MaxDP=6.35D-06 DE=-4.24D-09 OVMax= 8.03D-06

 Cycle  13  Pass 1  IDiag  1:
 RMSU=  1.14D-07    CP:  1.00D+00  1.06D+00  1.12D+00  7.84D-01
 E= -2279.87411293262     Delta-E=       -0.000000002427 Rises=F Damp=F
 DIIS: error= 6.77D-07 at cycle   5 NSaved=   5.
 NSaved= 5 IEnMin= 5 EnMin= -2279.87411293262     IErMin= 5 ErrMin= 6.77D-07
 ErrMax= 6.77D-07  0.00D+00 EMaxC= 1.00D-01 BMatC= 5.89D-11 BMatP= 2.04D-09
 IDIUse=1 WtCom= 1.00D+00 WtEn= 0.00D+00
 Coeff-Com:  0.304D-03-0.712D-02-0.213D-01 0.539D-01 0.974D+00
 Coeff:      0.304D-03-0.712D-02-0.213D-01 0.539D-01 0.974D+00
 Gap=     0.265 Goal=   None    Shift=    0.000
 RMSDP=5.69D-08 MaxDP=2.07D-06 DE=-2.43D-09 OVMax= 4.07D-06

 Cycle  14  Pass 1  IDiag  1:
 RMSU=  4.99D-08    CP:  1.00D+00  1.06D+00  1.13D+00  8.14D-01  1.11D+00
 E= -2279.87411293273     Delta-E=       -0.000000000113 Rises=F Damp=F
 DIIS: error= 3.02D-07 at cycle   6 NSaved=   6.
 NSaved= 6 IEnMin= 6 EnMin= -2279.87411293273     IErMin= 6 ErrMin= 3.02D-07
 ErrMax= 3.02D-07  0.00D+00 EMaxC= 1.00D-01 BMatC= 1.82D-11 BMatP= 5.89D-11
 IDIUse=1 WtCom= 1.00D+00 WtEn= 0.00D+00
 Coeff-Com: -0.216D-03 0.793D-02-0.940D-01-0.109D+00 0.334D+00 0.861D+00
 Coeff:     -0.216D-03 0.793D-02-0.940D-01-0.109D+00 0.334D+00 0.861D+00
 Gap=     0.265 Goal=   None    Shift=    0.000
 RMSDP=3.18D-08 MaxDP=1.02D-06 DE=-1.13D-10 OVMax= 1.97D-06

 Cycle  15  Pass 1  IDiag  1:
 RMSU=  1.88D-08    CP:  1.00D+00  1.06D+00  1.13D+00  8.42D-01  1.29D+00
                    CP:  1.06D+00
 E= -2279.87411293285     Delta-E=       -0.000000000116 Rises=F Damp=F
 DIIS: error= 9.78D-08 at cycle   7 NSaved=   7.
 NSaved= 7 IEnMin= 7 EnMin= -2279.87411293285     IErMin= 7 ErrMin= 9.78D-08
 ErrMax= 9.78D-08  0.00D+00 EMaxC= 1.00D-01 BMatC= 1.21D-12 BMatP= 1.82D-11
 IDIUse=1 WtCom= 1.00D+00 WtEn= 0.00D+00
 Coeff-Com: -0.288D-04 0.578D-03 0.567D-02-0.404D-02-0.121D+00-0.278D-01
 Coeff-Com:  0.115D+01
 Coeff:     -0.288D-04 0.578D-03 0.567D-02-0.404D-02-0.121D+00-0.278D-01
 Coeff:      0.115D+01
 Gap=     0.265 Goal=   None    Shift=    0.000
 RMSDP=1.31D-08 MaxDP=3.22D-07 DE=-1.16D-10 OVMax= 8.48D-07

 Cycle  16  Pass 1  IDiag  1:
 RMSU=  6.54D-09    CP:  1.00D+00  1.06D+00  1.12D+00  8.47D-01  1.34D+00
                    CP:  1.19D+00  1.30D+00
 E= -2279.87411293283     Delta-E=        0.000000000018 Rises=F Damp=F
 DIIS: error= 3.21D-08 at cycle   8 NSaved=   8.
 NSaved= 8 IEnMin= 7 EnMin= -2279.87411293285     IErMin= 8 ErrMin= 3.21D-08
 ErrMax= 3.21D-08  0.00D+00 EMaxC= 1.00D-01 BMatC= 3.05D-13 BMatP= 1.21D-12
 IDIUse=1 WtCom= 1.00D+00 WtEn= 0.00D+00
 Coeff-Com:  0.196D-04-0.898D-03 0.154D-01 0.134D-01-0.926D-01-0.130D+00
 Coeff-Com:  0.440D+00 0.755D+00
 Coeff:      0.196D-04-0.898D-03 0.154D-01 0.134D-01-0.926D-01-0.130D+00
 Coeff:      0.440D+00 0.755D+00
 Gap=     0.265 Goal=   None    Shift=    0.000
 RMSDP=4.10D-09 MaxDP=1.78D-07 DE= 1.82D-11 OVMax= 2.69D-07

 SCF Done:  E(RHF) =  -2279.87411293     A.U. after   16 cycles
            NFock= 16  Conv=0.41D-08     -V/T= 2.0004
 KE= 2.279012246137D+03 PE=-2.256594255606D+04 EE= 9.371975094722D+03
 Leave Link  502 at Mon Apr  8 09:27:04 2024, MaxMem=  6442450944 cpu:            3300.2 elap:             137.8
 (Enter /usr/local/g16/l801.exe)
 ExpMin= 1.46D-01 ExpMax= 4.56D+03 ExpMxC= 6.82D+02 IAcc=3 IRadAn=         5 AccDes= 0.00D+00
 HarFok:  IExCor=  205 AccDes= 0.00D+00 IRadAn=         5 IDoV=-2 UseB2=F ITyADJ=14
 ICtDFT= 12500011 ScaDFX=  1.000000  1.000000  1.000000  1.000000
 GSVD:  LWork=       -4080 too small for GESVD, short by       18900 words or       18900 for optimal perf.
 Largest valence mixing into a core orbital is  1.33D-04
 Largest core mixing into a valence orbital is  7.09D-05
 Range of M.O.s used for correlation:    61   822
 NBasis=   822 NAE=   183 NBE=   183 NFC=    60 NFV=     0
 NROrb=    762 NOA=   123 NOB=   123 NVA=   639 NVB=   639

 **** Warning!!: The largest alpha MO coefficient is  0.14188035D+02

 Leave Link  801 at Mon Apr  8 09:27:06 2024, MaxMem=  6442450944 cpu:               6.6 elap:               0.4
 (Enter /usr/local/g16/l906.exe)
 Frozen-core derivative calculation, NFC=  60 NFV=   0.
 FulOut=F Deriv=T AODrv=T NAtomX=    63
   MMem=           1  MDisk=         123 MDiskD=         123
  W3Min=   124101450 MinDsk=   130541075 NBas6D=         825
 NBas2D=      341868    NTT=      340725    LW2=     2040000
    MDV=  6435512580 MDiskM=      108308 NBas2p=      132863
 Disk-based method using ON**2 memory for123 occupieds at a time.
 Estimated scratch disk usage= 60242401904 words.
 IMap=   1   2   3   4   5   6   7   8   9  10  11  12  13  14  15  16  17  18  19  20
 IMap=  21  22  23  24  25  26  27  28  29  30  31  32  33  34  35  36  37  38  39  40
 IMap=  41  42  43  44  45  46  47  48  49  50  51  52  53  54  55  56  57  58  59  60
 IMap=  61  62  63  64  65  66  67  68  69  70  71  72  73  74  75  76  77  78  79  80
 IMap=  81  82  83  84  85  86  87  88  89  90  91  92  93  94  95  96  97  98  99 100
 IMap= 101 102 103 104 105 106 107 108 109 110 111 112 113 114 115 116 117 118 119 120
 IMap= 121 122 123 124 125 126 127 128 129 130 131 132 133 134 135 136 137 138 139 140
 IMap= 141 142 143 144 145 146 147 148 149 150 151 152 153 154 155 156 157 158 159 160
 IMap= 161 162 163 164 165 166 167 168 169 170 171 172 173 174 175 176 177 178 179 180
 IMap= 181 182 183
 Actual    scratch disk usage= 53823216240 words.
 JobTyp=1 Pass  1:  I=  61 to 183 NPSUse= 24 ParTrn=T ParDer=T DoDerP=T.
 Spin components of T(2) and E(2):
     alpha-alpha T2 =       0.4045576538D+00 E2=     -0.8593741147D+00
     alpha-beta  T2 =       0.1833108292D+01 E2=     -0.4153874359D+01
     beta-beta   T2 =       0.4045576538D+00 E2=     -0.8593741147D+00
 The integrals were generated   1 times.
 ANorm=    0.1908461055D+01
 E2 =    -0.5872622589D+01 EUMP2 =    -0.22857467355216D+04
 Leave Link  906 at Mon Apr  8 14:05:42 2024, MaxMem=  6442450944 cpu:          389752.5 elap:           16716.2
 (Enter /usr/local/g16/l1002.exe)
 Minotr:  Closed shell wavefunction.
          Computing MP2/KS-MP2 derivatives.
          Using Z-Vector for PSCF gradient.
          Skipping F1 and S1 gradient terms here.
          IDoAtm=00000000000000000000000000000000000000000000000000
          IDoAtm=0000000000111
          Frozen-core window.
          Direct CPHF calculation.
          Differentiating once with respect to electric field.
                with respect to dipole field.
          Differentiating once with respect to nuclear coordinates.
          Using symmetry in CPHF.
          Requested convergence is 1.0D-10 RMS, and 1.0D-09 maximum.
          NewPWx=F KeepS1=T KeepF1=T KeepIn=T MapXYZ=F SortEE=F KeepMc=T.
 Two-electron integral symmetry used by symmetrizing perturbed Fock matrices.
          MDV=    6442450944 using IRadAn=       5.
          Solving linear equations separately, MaxMat=      72.
          There are     1 degrees of freedom in the 1st order CPHF.  IDoFFX=0 NUNeed=     1.
 FoFJK:  IHMeth= 1 ICntrl=       0 DoSepK=F KAlg= 0 I1Cent=           0 FoldK=F
 IRaf= 760000000 NMat=       1 IRICut=       1 DoRegI=T DoRafI=F ISym2E=-1 IDoP0=0 IntGTp=1.
 FoFCou: FMM=F IPFlag=           0 FMFlag=      100000 FMFlg1=        2000
         NFxFlg=           0 DoJE=F BraDBF=F KetDBF=F FulRan=T
         wScrn=  0.000000 ICntrl=         0 IOpCl=  0 I1Cent=           0 NGrid=           0
         NMat0=    1 NMatS0=      1 NMatT0=    0 NMatD0=    1 NMtDS0=    0 NMtDT0=    0
 Petite list used in FoFCou.
 LinEq1:  Iter=  0 NonCon=     1 RMS=2.15D-03 Max=1.30D-01 NDo=     1
 AX will form     1 AO Fock derivatives at one time.
 LinEq1:  Iter=  1 NonCon=     1 RMS=3.43D-04 Max=1.94D-02 NDo=     1
 LinEq1:  Iter=  2 NonCon=     1 RMS=9.05D-05 Max=5.36D-03 NDo=     1
 LinEq1:  Iter=  3 NonCon=     1 RMS=2.40D-05 Max=1.06D-03 NDo=     1
 LinEq1:  Iter=  4 NonCon=     1 RMS=7.79D-06 Max=4.45D-04 NDo=     1
 LinEq1:  Iter=  5 NonCon=     1 RMS=2.16D-06 Max=1.44D-04 NDo=     1
 LinEq1:  Iter=  6 NonCon=     1 RMS=8.96D-07 Max=3.41D-05 NDo=     1
 LinEq1:  Iter=  7 NonCon=     1 RMS=1.39D-07 Max=8.49D-06 NDo=     1
 LinEq1:  Iter=  8 NonCon=     1 RMS=8.34D-08 Max=5.60D-06 NDo=     1
 LinEq1:  Iter=  9 NonCon=     1 RMS=4.01D-08 Max=2.43D-06 NDo=     1
 LinEq1:  Iter= 10 NonCon=     1 RMS=1.46D-08 Max=1.03D-06 NDo=     1
 LinEq1:  Iter= 11 NonCon=     1 RMS=6.15D-09 Max=2.43D-07 NDo=     1
 LinEq1:  Iter= 12 NonCon=     1 RMS=1.52D-09 Max=1.12D-07 NDo=     1
 LinEq1:  Iter= 13 NonCon=     1 RMS=3.58D-10 Max=1.43D-08 NDo=     1
 LinEq1:  Iter= 14 NonCon=     1 RMS=1.66D-10 Max=7.00D-09 NDo=     1
 LinEq1:  Iter= 15 NonCon=     1 RMS=4.97D-11 Max=5.06D-09 NDo=     1
 LinEq1:  Iter= 16 NonCon=     1 RMS=2.93D-11 Max=3.62D-09 NDo=     1
 LinEq1:  Iter= 17 NonCon=     1 RMS=1.40D-11 Max=1.32D-09 NDo=     1
 LinEq1:  Iter= 18 NonCon=     0 RMS=7.33D-12 Max=4.70D-10 NDo=     1
 Linear equations converged to 1.000D-10 1.000D-09 after    18 iterations.
 End of Minotr F.D. properties file   721 does not exist.
 End of Minotr F.D. properties file   722 does not exist.
 End of Minotr F.D. properties file   788 does not exist.
 Leave Link 1002 at Mon Apr  8 14:10:49 2024, MaxMem=  6442450944 cpu:            7222.3 elap:             302.9
 (Enter /usr/local/g16/l601.exe)
 Copying SCF densities to generalized density rwf, IOpCl= 0 IROHF=0.

 **********************************************************************

            Population analysis using the SCF Density.

 **********************************************************************

 Orbital symmetries:
       Occupied  (A') (A') (A") (A') (A') (A") (A') (A") (A') (A')
                 (A') (A") (A") (A') (A") (A') (A") (A') (A') (A")
                 (A") (A') (A') (A") (A') (A") (A") (A') (A') (A")
                 (A') (A") (A') (A") (A') (A") (A') (A") (A') (A')
                 (A') (A") (A") (A') (A") (A') (A") (A") (A') (A')
                 (A") (A') (A") (A') (A') (A") (A") (A") (A') (A")
                 (A') (A") (A') (A') (A') (A") (A') (A') (A") (A')
                 (A') (A") (A') (A") (A') (A") (A') (A') (A") (A')
                 (A") (A") (A') (A') (A") (A') (A') (A") (A') (A")
                 (A") (A") (A') (A') (A") (A') (A") (A') (A') (A")
                 (A') (A") (A') (A') (A") (A") (A') (A') (A") (A')
                 (A') (A") (A") (A') (A') (A") (A") (A') (A') (A")
                 (A") (A') (A') (A') (A") (A') (A") (A') (A') (A")
                 (A') (A") (A') (A') (A") (A') (A') (A") (A") (A')
                 (A") (A') (A") (A') (A") (A") (A') (A") (A') (A')
                 (A") (A') (A") (A') (A") (A') (A') (A") (A') (A")
                 (A') (A") (A") (A') (A') (A") (A') (A') (A") (A')
                 (A") (A') (A") (A') (A") (A') (A") (A') (A") (A')
                 (A") (A') (A")
       Virtual   (A') (A") (A') (A") (A') (A") (A') (A') (A") (A')
                 (A") (A') (A") (A') (A") (A') (A') (A") (A") (A")
                 (A') (A") (A') (A') (A") (A") (A') (A') (A") (A")
                 (A') (A') (A") (A') (A") (A') (A") (A') (A') (A')
                 (A") (A') (A") (A') (A") (A') (A") (A") (A") (A')
                 (A') (A") (A') (A') (A") (A') (A") (A') (A') (A")
                 (A') (A") (A') (A') (A") (A") (A') (A") (A') (A')
                 (A") (A') (A') (A") (A") (A') (A') (A") (A") (A')
                 (A') (A") (A') (A') (A") (A') (A") (A") (A') (A')
                 (A") (A') (A") (A') (A") (A') (A') (A') (A") (A")
                 (A') (A') (A") (A') (A') (A") (A') (A") (A') (A")
                 (A') (A") (A") (A') (A") (A') (A") (A') (A') (A")
                 (A") (A') (A') (A") (A') (A") (A") (A') (A') (A")
                 (A') (A") (A') (A") (A') (A") (A") (A') (A") (A')
                 (A") (A") (A') (A') (A') (A") (A') (A') (A") (A')
                 (A") (A') (A') (A") (A") (A") (A') (A") (A') (A")
                 (A') (A") (A') (A") (A') (A') (A") (A') (A') (A")
                 (A") (A') (A") (A') (A') (A") (A') (A") (A") (A')
                 (A") (A') (A") (A") (A') (A') (A") (A') (A") (A')
                 (A") (A') (A") (A') (A") (A") (A') (A") (A') (A')
                 (A") (A') (A") (A') (A") (A') (A") (A") (A") (A')
                 (A") (A") (A') (A') (A') (A') (A") (A') (A") (A')
                 (A") (A') (A") (A') (A') (A") (A') (A") (A') (A")
                 (A') (A") (A') (A") (A') (A") (A') (A') (A') (A")
                 (A") (A") (A") (A') (A') (A") (A') (A") (A') (A")
                 (A') (A') (A") (A") (A') (A") (A') (A') (A") (A")
                 (A') (A") (A") (A') (A") (A') (A") (A') (A") (A')
                 (A") (A") (A') (A') (A") (A') (A") (A') (A") (A')
                 (A') (A") (A') (A') (A") (A") (A') (A") (A') (A")
                 (A') (A') (A") (A") (A') (A") (A') (A') (A") (A')
                 (A") (A") (A") (A") (A') (A') (A") (A') (A') (A")
                 (A') (A") (A") (A') (A") (A') (A") (A') (A") (A')
                 (A") (A') (A") (A") (A') (A') (A") (A') (A") (A')
                 (A") (A") (A") (A") (A') (A') (A") (A") (A') (A")
                 (A') (A') (A") (A') (A") (A') (A") (A") (A") (A')
                 (A") (A') (A") (A') (A') (A") (A') (A") (A') (A")
                 (A") (A') (A") (A') (A") (A") (A') (A') (A") (A")
                 (A") (A') (A') (A") (A') (A') (A') (A") (A') (A")
                 (A') (A') (A") (A') (A") (A") (A') (A") (A') (A")
                 (A') (A") (A') (A") (A') (A') (A") (A') (A") (A')
                 (A') (A') (A") (A') (A") (A") (A') (A') (A") (A")
                 (A") (A') (A") (A') (A") (A') (A") (A') (A") (A')
                 (A") (A') (A') (A") (A') (A') (A") (A") (A') (A')
                 (A") (A') (A") (A') (A") (A') (A") (A') (A') (A")
                 (A") (A') (A") (A') (A") (A') (A") (A") (A') (A")
                 (A') (A') (A") (A') (A") (A') (A") (A') (A") (A')
                 (A") (A") (A') (A") (A') (A') (A") (A') (A") (A')
                 (A') (A') (A") (A") (A') (A') (A") (A') (A') (A")
                 (A") (A') (A") (A") (A') (A") (A') (A') (A") (A")
                 (A') (A") (A') (A") (A') (A") (A') (A') (A") (A')
                 (A") (A') (A") (A') (A') (A') (A") (A") (A') (A")
                 (A") (A') (A") (A') (A") (A") (A') (A') (A") (A")
                 (A') (A') (A") (A') (A') (A") (A') (A") (A') (A")
                 (A') (A") (A") (A') (A") (A') (A') (A") (A") (A')
                 (A") (A') (A") (A") (A') (A') (A") (A") (A") (A')
                 (A") (A") (A') (A') (A") (A') (A") (A') (A") (A')
                 (A") (A') (A') (A") (A") (A') (A') (A") (A") (A')
                 (A') (A") (A') (A') (A") (A') (A") (A") (A') (A')
                 (A') (A') (A") (A") (A') (A') (A") (A') (A") (A')
                 (A") (A') (A') (A') (A") (A") (A') (A') (A") (A')
                 (A") (A') (A') (A") (A') (A") (A') (A") (A') (A')
                 (A") (A') (A") (A') (A") (A") (A') (A') (A") (A')
                 (A") (A') (A") (A') (A") (A") (A') (A") (A') (A")
                 (A') (A") (A') (A") (A") (A') (A') (A") (A")
 The electronic state is 1-A'.
 Alpha  occ. eigenvalues --  -11.31282 -11.31280 -11.31264 -11.31264 -11.31254
 Alpha  occ. eigenvalues --  -11.31253 -11.31249 -11.31235 -11.31235 -11.31227
 Alpha  occ. eigenvalues --  -11.31222 -11.31221 -11.31217 -11.31215 -11.31204
 Alpha  occ. eigenvalues --  -11.31202 -11.31198 -11.31194 -11.31191 -11.31189
 Alpha  occ. eigenvalues --  -11.31187 -11.31183 -11.31182 -11.31171 -11.31160
 Alpha  occ. eigenvalues --  -11.31159 -11.31150 -11.31147 -11.31135 -11.31132
 Alpha  occ. eigenvalues --  -11.31114 -11.31111 -11.31104 -11.31103 -11.31101
 Alpha  occ. eigenvalues --  -11.31094 -11.31081 -11.31079 -11.31078 -11.31072
 Alpha  occ. eigenvalues --  -11.31069 -11.31069 -11.31060 -11.31056 -11.31052
 Alpha  occ. eigenvalues --  -11.31046 -11.31045 -11.31037 -11.31036 -11.31024
 Alpha  occ. eigenvalues --  -11.31023 -11.31013 -11.31012 -11.31005 -11.31001
 Alpha  occ. eigenvalues --  -11.30999 -11.30998 -11.30960 -11.30948 -11.30948
 Alpha  occ. eigenvalues --   -1.31615  -1.29111  -1.29110  -1.29044  -1.24264
 Alpha  occ. eigenvalues --   -1.24260  -1.24256  -1.24233  -1.24232  -1.19045
 Alpha  occ. eigenvalues --   -1.19042  -1.19035  -1.15300  -1.15282  -1.15279
 Alpha  occ. eigenvalues --   -1.15271  -1.08636  -1.08633  -1.08627  -1.08626
 Alpha  occ. eigenvalues --   -1.08626  -1.06798  -1.06796  -1.06790  -1.06789
 Alpha  occ. eigenvalues --   -1.01107  -0.99897  -0.99896  -0.99894  -0.99892
 Alpha  occ. eigenvalues --   -0.99882  -0.96923  -0.96919  -0.96905  -0.94087
 Alpha  occ. eigenvalues --   -0.94068  -0.90995  -0.90993  -0.90988  -0.87104
 Alpha  occ. eigenvalues --   -0.87103  -0.87093  -0.86954  -0.86953  -0.86948
 Alpha  occ. eigenvalues --   -0.86938  -0.86936  -0.81854  -0.77265  -0.77261
 Alpha  occ. eigenvalues --   -0.77255  -0.77254  -0.75124  -0.75124  -0.75121
 Alpha  occ. eigenvalues --   -0.75118  -0.75117  -0.72314  -0.72300  -0.72300
 Alpha  occ. eigenvalues --   -0.68583  -0.68579  -0.68575  -0.65635  -0.65632
 Alpha  occ. eigenvalues --   -0.65631  -0.65626  -0.65581  -0.63657  -0.63656
 Alpha  occ. eigenvalues --   -0.63644  -0.63638  -0.63634  -0.63113  -0.62529
 Alpha  occ. eigenvalues --   -0.62529  -0.61918  -0.61917  -0.61917  -0.61916
 Alpha  occ. eigenvalues --   -0.60287  -0.60283  -0.60279  -0.58382  -0.58382
 Alpha  occ. eigenvalues --   -0.58373  -0.58360  -0.57021  -0.57020  -0.56927
 Alpha  occ. eigenvalues --   -0.56846  -0.56838  -0.52288  -0.52286  -0.52279
 Alpha  occ. eigenvalues --   -0.52278  -0.52265  -0.50972  -0.50970  -0.50958
 Alpha  occ. eigenvalues --   -0.50952  -0.50949  -0.48903  -0.48881  -0.48868
 Alpha  occ. eigenvalues --   -0.47213  -0.47189  -0.47181  -0.47176  -0.37480
 Alpha  occ. eigenvalues --   -0.37479  -0.37474  -0.37469  -0.36422  -0.36421
 Alpha  occ. eigenvalues --   -0.36414  -0.36412  -0.36411  -0.30081  -0.30079
 Alpha  occ. eigenvalues --   -0.30077  -0.30077  -0.30074
 Alpha virt. eigenvalues --   -0.03550  -0.03548  -0.03545   0.02487   0.02487
 Alpha virt. eigenvalues --    0.02490   0.08447   0.08454   0.08456   0.08475
 Alpha virt. eigenvalues --    0.08477   0.08479   0.08488   0.08489   0.17292
[...]
 Alpha  occ. eigenvalues --   -1.08625  -1.06797  -1.06795  -1.06790  -1.06789
 Alpha  occ. eigenvalues --   -1.01141  -0.99896  -0.99896  -0.99894  -0.99892
 Alpha  occ. eigenvalues --   -0.99882  -0.96922  -0.96918  -0.96905  -0.94086
 Alpha  occ. eigenvalues --   -0.94025  -0.90995  -0.90993  -0.90988  -0.87104
 Alpha  occ. eigenvalues --   -0.87103  -0.87093  -0.86953  -0.86952  -0.86948
 Alpha  occ. eigenvalues --   -0.86938  -0.86936  -0.81854  -0.77265  -0.77261
 Alpha  occ. eigenvalues --   -0.77254  -0.77254  -0.75124  -0.75123  -0.75121
 Alpha  occ. eigenvalues --   -0.75118  -0.75117  -0.72314  -0.72300  -0.72300
 Alpha  occ. eigenvalues --   -0.68583  -0.68579  -0.68575  -0.65635  -0.65631
 Alpha  occ. eigenvalues --   -0.65631  -0.65626  -0.65583  -0.63657  -0.63656
 Alpha  occ. eigenvalues --   -0.63644  -0.63638  -0.63633  -0.63113  -0.62532
 Alpha  occ. eigenvalues --   -0.62529  -0.61918  -0.61917  -0.61916  -0.61915
 Alpha  occ. eigenvalues --   -0.60287  -0.60282  -0.60279  -0.58382  -0.58381
 Alpha  occ. eigenvalues --   -0.58373  -0.58360  -0.57021  -0.57019  -0.56927
 Alpha  occ. eigenvalues --   -0.56849  -0.56837  -0.52288  -0.52286  -0.52279
 Alpha  occ. eigenvalues --   -0.52278  -0.52264  -0.50972  -0.50970  -0.50958
 Alpha  occ. eigenvalues --   -0.50951  -0.50949  -0.48903  -0.48881  -0.48868
 Alpha  occ. eigenvalues --   -0.47212  -0.47188  -0.47181  -0.47176  -0.37480
 Alpha  occ. eigenvalues --   -0.37478  -0.37474  -0.37468  -0.36421  -0.36421
 Alpha  occ. eigenvalues --   -0.36414  -0.36412  -0.36411  -0.30080  -0.30078
 Alpha  occ. eigenvalues --   -0.30077  -0.30076  -0.30074
 Alpha virt. eigenvalues --   -0.03550  -0.03548  -0.03545   0.02487   0.02487
 Alpha virt. eigenvalues --    0.02490   0.08447   0.08454   0.08457   0.08475
 Alpha virt. eigenvalues --    0.08477   0.08479   0.08488   0.08489   0.17292
 Alpha virt. eigenvalues --    0.17292   0.17296   0.17299   0.17301   0.20341
 Alpha virt. eigenvalues --    0.20342   0.20349   0.20351   0.23949   0.23959
 Alpha virt. eigenvalues --    0.23975   0.23977   0.26971   0.26982   0.27003
 Alpha virt. eigenvalues --    0.27750   0.27789   0.27791   0.29939   0.29949
 Alpha virt. eigenvalues --    0.29953   0.29962   0.29966   0.32757   0.32759
 Alpha virt. eigenvalues --    0.32764   0.34253   0.34337   0.34339   0.34342
 Alpha virt. eigenvalues --    0.35095   0.35095   0.35111   0.37586   0.37593
 Alpha virt. eigenvalues --    0.37601   0.37603   0.38723   0.38746   0.38752
 Alpha virt. eigenvalues --    0.38752   0.38757   0.43294   0.45496   0.45513
 Alpha virt. eigenvalues --    0.45908   0.46624   0.46642   0.46708   0.47531
 Alpha virt. eigenvalues --    0.47543   0.47546   0.47552   0.47553   0.48447
 Alpha virt. eigenvalues --    0.48526   0.49711   0.51282   0.53765   0.53773
 Alpha virt. eigenvalues --    0.53780   0.53963   0.53983   0.55556   0.55566
 Alpha virt. eigenvalues --    0.55996   0.56745   0.56780   0.56952   0.56954
 Alpha virt. eigenvalues --    0.56955   0.56958   0.56965   0.56973   0.57196
 Alpha virt. eigenvalues --    0.57266   0.57319   0.57344   0.57772   0.57790
 Alpha virt. eigenvalues --    0.57794   0.58871   0.59503   0.59504   0.59527
 Alpha virt. eigenvalues --    0.59538   0.59541   0.59659   0.59664   0.59671
 Alpha virt. eigenvalues --    0.59676   0.61647   0.61665   0.61682   0.61682
 Alpha virt. eigenvalues --    0.62007   0.62009   0.62020   0.62021   0.62032
 Alpha virt. eigenvalues --    0.62496   0.62498   0.62540   0.62580   0.62597
 Alpha virt. eigenvalues --    0.63916   0.63988   0.64073   0.64880   0.64881
 Alpha virt. eigenvalues --    0.64890   0.65528   0.65529   0.65534   0.65541
 Alpha virt. eigenvalues --    0.66823   0.66882   0.66916   0.66945   0.66965
 Alpha virt. eigenvalues --    0.67033   0.67037   0.67038   0.67959   0.67960
 Alpha virt. eigenvalues --    0.67970   0.68533   0.68534   0.68538   0.68895
 Alpha virt. eigenvalues --    0.69087   0.69090   0.69197   0.69198   0.70980
 Alpha virt. eigenvalues --    0.72343   0.72354   0.72359   0.72361   0.72579
 Alpha virt. eigenvalues --    0.72581   0.72581   0.72584   0.72584   0.74342
 Alpha virt. eigenvalues --    0.75033   0.75125   0.75367   0.75373   0.75445
 Alpha virt. eigenvalues --    0.75755   0.75914   0.75916   0.75922   0.75924
 Alpha virt. eigenvalues --    0.76025   0.76436   0.76558   0.77778   0.77781
 Alpha virt. eigenvalues --    0.77783   0.77801   0.77801   0.77990   0.78247
 Alpha virt. eigenvalues --    0.78293   0.78302   0.78303   0.78311   0.78371
 Alpha virt. eigenvalues --    0.78704   0.80421   0.80421   0.80422   0.80424
 Alpha virt. eigenvalues --    0.80425   0.80719   0.80759   0.80770   0.80772
 Alpha virt. eigenvalues --    0.81033   0.81039   0.81055   0.81060   0.81081
 Alpha virt. eigenvalues --    0.81630   0.81634   0.81636   0.81641   0.81645
 Alpha virt. eigenvalues --    0.82209   0.82213   0.82216   0.83240   0.83315
 Alpha virt. eigenvalues --    0.83412   0.83414   0.83414   0.83418   0.83653
 Alpha virt. eigenvalues --    0.86077   0.86271   0.86458   0.86551   0.89258
 Alpha virt. eigenvalues --    0.90794   0.90902   0.90955   0.91076   0.91179
 Alpha virt. eigenvalues --    0.91206   0.91235   0.91235   0.91401   0.91514
 Alpha virt. eigenvalues --    0.92262   0.92661   0.92693   0.92696   0.93247
 Alpha virt. eigenvalues --    0.94780   0.94816   0.95113   0.96981   0.96987
 Alpha virt. eigenvalues --    0.97001   0.97449   0.98495   0.98586   0.98677
 Alpha virt. eigenvalues --    0.98691   0.98786   1.00225   1.00245   1.00249
 Alpha virt. eigenvalues --    1.00286   1.00384   1.00394   1.00411   1.01137
 Alpha virt. eigenvalues --    1.01139   1.01567   1.02160   1.02160   1.02178
 Alpha virt. eigenvalues --    1.04750   1.04757   1.04772   1.04773   1.05890
 Alpha virt. eigenvalues --    1.05944   1.06034   1.06038   1.07303   1.07305
 Alpha virt. eigenvalues --    1.07307   1.07309   1.07310   1.08762   1.08806
 Alpha virt. eigenvalues --    1.08861   1.09076   1.09179   1.09263   1.09265
 Alpha virt. eigenvalues --    1.09355   1.09599   1.09600   1.09601   1.09603
 Alpha virt. eigenvalues --    1.09606   1.13992   1.14471   1.14562   1.16053
 Alpha virt. eigenvalues --    1.16055   1.16066   1.16071   1.16832   1.16863
 Alpha virt. eigenvalues --    1.17093   1.17124   1.17211   1.17245   1.17247
 Alpha virt. eigenvalues --    1.17251   1.17302   1.17684   1.17693   1.17700
 Alpha virt. eigenvalues --    1.18350   1.22478   1.22486   1.22530   1.22542
 Alpha virt. eigenvalues --    1.25277   1.25286   1.25320   1.25342   1.25354
 Alpha virt. eigenvalues --    1.25826   1.28166   1.28529   1.28547   1.28572
 Alpha virt. eigenvalues --    1.28574   1.28867   1.29028   1.32086   1.32089
 Alpha virt. eigenvalues --    1.32105   1.32107   1.37135   1.37336   1.37625
 Alpha virt. eigenvalues --    1.37778   1.38006   1.40089   1.40109   1.40109
 Alpha virt. eigenvalues --    1.42365   1.42372   1.42380   1.45507   1.45992
 Alpha virt. eigenvalues --    1.46030   1.46308   1.46958   1.49921   1.50731
 Alpha virt. eigenvalues --    1.51206   1.51557   1.53329   1.58596   1.59077
 Alpha virt. eigenvalues --    1.59412   1.59431   1.60743   1.62233   1.63916
 Alpha virt. eigenvalues --    1.64622   1.65361   1.65944   1.67738   1.68107
 Alpha virt. eigenvalues --    1.73108   1.73326   1.73356   1.73381   1.73413
 Alpha virt. eigenvalues --    1.74120   1.74285   1.81656   1.81657   1.81663
 Alpha virt. eigenvalues --    1.85415   1.85878   2.80975   2.81543   2.81543
 Alpha virt. eigenvalues --    2.83645   2.84087   2.84273   2.84563   2.84643
 Alpha virt. eigenvalues --    2.85098   2.85226   2.85591   2.87180   2.87182
 Alpha virt. eigenvalues --    2.87200   2.90898   2.91048   2.91191   2.91404
 Alpha virt. eigenvalues --    2.92001   2.92188   2.92308   2.92377   2.92402
 Alpha virt. eigenvalues --    2.92727   2.93289   2.93510   2.93689   2.93760
 Alpha virt. eigenvalues --    2.94183   2.94189   2.94189   2.95155   2.96149
 Alpha virt. eigenvalues --    2.96160   2.96166   2.96173   2.96185   2.99285
 Alpha virt. eigenvalues --    2.99296   2.99298   2.99301   2.99301   2.99457
 Alpha virt. eigenvalues --    2.99458   2.99465   3.00504   3.00738   3.04168
 Alpha virt. eigenvalues --    3.04377   3.04457   3.05053   3.05148   3.05377
 Alpha virt. eigenvalues --    3.05429   3.05516   3.08224   3.08235   3.08917
 Alpha virt. eigenvalues --    3.12583   3.12597   3.12599   3.12602   3.12604
 Alpha virt. eigenvalues --    3.13145   3.13164   3.18517   3.18733   3.19277
 Alpha virt. eigenvalues --    3.19283   3.19293   3.19312   3.19320   3.19352
 Alpha virt. eigenvalues --    3.19355   3.19720   3.21585   3.21588   3.21590
 Alpha virt. eigenvalues --    3.21590   3.29791   3.32088   3.32111   3.32413
 Alpha virt. eigenvalues --    3.32834   3.36632   3.36673   3.36690   3.36725
 Alpha virt. eigenvalues --    3.36732   3.36734   3.36735   3.36765   3.36837
 Alpha virt. eigenvalues --    3.36958   3.38109   3.38121   3.38255   3.38430
 Alpha virt. eigenvalues --    3.39242   3.39449   3.39479   3.43109   3.43241
 Alpha virt. eigenvalues --    3.43324   3.43364   3.43575   3.44848   3.44852
 Alpha virt. eigenvalues --    3.44858   3.44897   3.44904   3.44974   3.45005
 Alpha virt. eigenvalues --    3.45097   3.45164   3.45520   3.45556   3.46652
 Alpha virt. eigenvalues --    3.46657   3.46659   3.46669   3.46670   3.47070
 Alpha virt. eigenvalues --    3.47110   3.47176   3.47270   3.47294   3.47309
 Alpha virt. eigenvalues --    3.48609   3.48612   3.48621   3.48626   3.48629
 Alpha virt. eigenvalues --    3.49230   3.49233   3.49249   3.58208   3.58208
 Alpha virt. eigenvalues --    3.58220   3.58220   3.59628   3.59637   3.59638
 Alpha virt. eigenvalues --    3.64959   3.64963   3.64999   3.65003   3.66353
 Alpha virt. eigenvalues --    3.66374   3.66388   3.72467   3.72469   3.72474
 Alpha virt. eigenvalues --    3.72530   3.72538   3.73800   3.73807   3.73809
 Alpha virt. eigenvalues --    3.73818   3.73845   3.78047   3.78059   3.78073
 Alpha virt. eigenvalues --    3.78074   3.85559   3.85561   3.85577   3.85583
 Alpha virt. eigenvalues --    3.85595   3.89345   3.89351   3.89361   3.89363
 Alpha virt. eigenvalues --    3.95660   3.95669   3.95686   4.05299   4.05322
 Alpha virt. eigenvalues --    4.05323   4.26679   5.00261   5.01612   5.01663
 Alpha virt. eigenvalues --    6.33189   6.33245   6.33280   6.33432   6.33448
 Alpha virt. eigenvalues --    6.33465   6.33588   6.34157   6.34239   6.34709
 Alpha virt. eigenvalues --    6.34746   6.34911   6.35459   6.41082   6.41277
 Alpha virt. eigenvalues --    7.84930   7.85019   7.86105   7.86130   7.91482
 Alpha virt. eigenvalues --    7.91731   8.00801   8.14734   8.15395  24.12082
 Alpha virt. eigenvalues --   24.12182  24.17520  24.17641  24.21540  24.21549
 Alpha virt. eigenvalues --   24.22431  24.26658  24.26865  24.35679  24.35719
 Alpha virt. eigenvalues --   24.35815  24.36361  24.40515  24.40675  24.40864
 Alpha virt. eigenvalues --   24.54947  24.54948  24.55049  24.55313  24.55365
 Alpha virt. eigenvalues --   24.57747  24.57800  24.57958  24.57993  24.72139
 Alpha virt. eigenvalues --   24.72248  24.72264  24.74712  24.74740  24.74765
 Alpha virt. eigenvalues --   24.75455  24.75507  24.75552  24.75593  24.75840
 Alpha virt. eigenvalues --   24.85876  24.85899  24.85970  24.86016  24.86045
 Alpha virt. eigenvalues --   24.93094  24.93103  24.93199  24.96235  24.96249
 Alpha virt. eigenvalues --   24.96261  24.96316  25.02944  25.02953  25.02975
 Alpha virt. eigenvalues --   25.03001  25.03131  25.03135  25.03144  25.03176
 Alpha virt. eigenvalues --   25.03180  25.09198  25.09207  25.09227
          Condensed to atoms (all electrons):
 Mulliken charges:
               1
     1  C    0.001888
     2  C   -0.005547
     3  C   -0.005547
     4  C    0.001888
     5  C    0.000320
     6  C    0.000320
     7  C   -0.004914
     8  C   -0.004914
     9  C    0.000148
    10  C   -0.000010
    11  C   -0.000010
    12  C    0.000148
    13  C    0.000303
    14  C    0.001634
    15  C    0.001080
    16  C   -0.003260
    17  C   -0.004073
    18  C    0.002187
    19  C   -0.006590
    20  C    0.001493
    21  C   -0.004073
    22  C    0.000362
    23  C    0.000303
    24  C    0.001870
    25  C    0.001634
    26  C    0.002187
    27  C    0.001080
    28  C   -0.003260
    29  C    0.001493
    30  C   -0.001609
    31  C    0.000231
    32  C    0.001870
    33  C   -0.006590
    34  C   -0.001609
    35  C    0.000113
    36  C    0.001308
    37  C   -0.000062
    38  C    0.000113
    39  C    0.001308
    40  C   -0.001639
    41  C   -0.004513
    42  C    0.001606
    43  C   -0.008200
    44  C    0.000208
    45  C    0.000225
    46  C    0.000208
    47  C    0.000523
    48  C   -0.000148
    49  C   -0.001639
    50  C   -0.004513
    51  C    0.000225
    52  C    0.000352
    53  C    0.000933
    54  C    0.000404
    55  C    0.000352
    56  C    0.000523
    57  C   -0.008200
    58  C    0.001606
    59  C    0.000933
    60  C    0.000404
    61  He   0.015649
    62  He   0.015843
    63  He   0.015649
 Sum of Mulliken charges =  -0.00000
 Mulliken charges with hydrogens summed into heavy atoms:
               1
     1  C    0.001888
     2  C   -0.005547
     3  C   -0.005547
     4  C    0.001888
     5  C    0.000320
     6  C    0.000320
     7  C   -0.004914
     8  C   -0.004914
     9  C    0.000148
    10  C   -0.000010
    11  C   -0.000010
    12  C    0.000148
    13  C    0.000303
    14  C    0.001634
    15  C    0.001080
    16  C   -0.003260
    17  C   -0.004073
    18  C    0.002187
    19  C   -0.006590
    20  C    0.001493
    21  C   -0.004073
    22  C    0.000362
    23  C    0.000303
    24  C    0.001870
    25  C    0.001634
    26  C    0.002187
    27  C    0.001080
    28  C   -0.003260
    29  C    0.001493
    30  C   -0.001609
    31  C    0.000231
    32  C    0.001870
    33  C   -0.006590
    34  C   -0.001609
    35  C    0.000113
    36  C    0.001308
    37  C   -0.000062
    38  C    0.000113
    39  C    0.001308
    40  C   -0.001639
    41  C   -0.004513
    42  C    0.001606
    43  C   -0.008200
    44  C    0.000208
    45  C    0.000225
    46  C    0.000208
    47  C    0.000523
    48  C   -0.000148
    49  C   -0.001639
    50  C   -0.004513
    51  C    0.000225
    52  C    0.000352
    53  C    0.000933
    54  C    0.000404
    55  C    0.000352
    56  C    0.000523
    57  C   -0.008200
    58  C    0.001606
    59  C    0.000933
    60  C    0.000404
    61  He   0.015649
    62  He   0.015843
    63  He   0.015649
 Electronic spatial extent (au):  <R**2>=          17084.4526
 Charge=             -0.0000 electrons
 Dipole moment (field-independent basis, Debye):
    X=              0.0011    Y=             -0.0004    Z=             -0.0000  Tot=              0.0012
 Quadrupole moment (field-independent basis, Debye-Ang):
   XX=           -354.7358   YY=           -355.5953   ZZ=           -355.6509
   XY=             -0.2300   XZ=             -0.0000   YZ=             -0.0000
 Traceless Quadrupole moment (field-independent basis, Debye-Ang):
   XX=              0.5915   YY=             -0.2680   ZZ=             -0.3236
   XY=             -0.2300   XZ=             -0.0000   YZ=             -0.0000
 Octapole moment (field-independent basis, Debye-Ang**2):
  XXX=             -0.0486  YYY=             -1.6278  ZZZ=              0.0000  XYY=             -0.3756
  XXY=             -0.1013  XXZ=             -0.0000  XZZ=              0.3814  YZZ=              1.7982
  YYZ=             -0.0000  XYZ=             -0.0000
 Hexadecapole moment (field-independent basis, Debye-Ang**3):
 XXXX=          -9285.8686 YYYY=          -9315.4194 ZZZZ=          -9317.9546 XXXY=             -3.1489
 XXXZ=             -0.0000 YYYX=             -4.7358 YYYZ=             -0.0000 ZZZX=             -0.0000
 ZZZY=             -0.0000 XXYY=          -3099.6218 XXZZ=          -3099.6489 YYZZ=          -3106.0522
 XXYZ=             -0.0000 YYXZ=             -0.0000 ZZXY=             -1.5833
 N-N= 8.635086888820D+03 E-N=-2.256595525302D+04  KE= 2.279012304234D+03
 Symmetry A'   KE= 1.218833807634D+03
 Symmetry A"   KE= 1.060178496600D+03
 No NMR shielding tensors so no spin-rotation constants.
 Leave Link  601 at Tue Apr  9 00:08:37 2024, MaxMem=  6442450944 cpu:              28.4 elap:               1.3
 (Enter /usr/local/g16/l9999.exe)
 1\1\GINC-EGEO-023\FOpt\RMP2-FC\Gen\C60He3\POMORENOR\09-Apr-2024\0\\#P 
 MP2 gen Opt Units=Angstroms\\Geometry optimization with frozen fullere
 ne and free pseudomolecule diff basis set\\0,1\C,-1.9643331357,-1.4271
 715593,2.5992707165\C,-2.9667066137,-0.6989045978,1.8335255161\C,-2.96
 67066137,0.6989045978,1.8335255161\C,-1.9643331357,1.4271715593,2.5992
 707165\C,-1.0023734838,0.7282669616,3.3341425013\C,-1.0023734838,-0.72
 82669616,3.3341425013\C,-3.2033348918,-1.4271715593,0.5945237568\C,-3.
 2033348918,1.4271715593,0.5945237568\C,-1.581460535,2.6055322561,1.833
 5255177\C,0.3828725949,1.1783606968,3.3341425029\C,0.3828725949,-1.178
 3606968,3.3341425029\C,-1.581460535,-2.6055322561,1.8335255177\C,0.750
 3084873,2.3092120912,2.5992707202\C,-0.2520649907,3.0374790522,1.83352
 55198\C,1.9893102477,2.3092120912,1.833525523\C,0.3674358908,3.4875727
 875,0.5945237616\C,-3.4304227594,-0.7282669616,-0.5945237658\C,-2.3472
 057322,2.6055322561,0.5945237579\C,1.7526819695,3.0374790522,0.5945237
 637\C,-1.7526819695,3.0374790522,-0.5945237637\C,-3.4304227594,0.72826
 69616,-0.5945237658\C,1.239001754,0.,3.334142504\C,0.7503084873,-2.309
 2120912,2.5992707202\C,-2.8109218785,-1.1783606968,-1.8335255241\C,-0.
 2520649907,-3.0374790522,1.8335255198\C,-2.3472057322,-2.6055322561,0.
 5945237579\C,1.9893102477,-2.3092120912,1.833525523\C,0.3674358908,-3.
 4875727875,0.5945237616\C,-1.7526819695,-3.0374790522,-0.5945237637\C,
 -0.3674358908,3.4875727875,-0.5945237616\C,2.4280492777,0.,2.599270722
 9\C,-2.8109218785,1.1783606968,-1.8335255241\C,1.7526819695,-3.0374790
 522,0.5945237637\C,-0.3674358908,-3.4875727875,-0.5945237616\C,-1.9893
 102477,-2.3092120912,-1.833525523\C,-0.7503084873,-2.3092120912,-2.599
 2707202\C,-2.4280492777,0.,-2.5992707229\C,-1.9893102477,2.3092120912,
 -1.833525523\C,-0.7503084873,2.3092120912,-2.5992707202\C,0.2520649907
 ,-3.0374790522,-1.8335255198\C,1.581460535,-2.6055322561,-1.8335255177
 \C,1.9643331357,-1.4271715593,-2.5992707165\C,2.3472057322,-2.60553225
 61,-0.5945237579\C,2.8109218785,1.1783606968,1.8335255241\C,-0.3828725
 949,1.1783606968,-3.3341425029\C,2.8109218785,-1.1783606968,1.83352552
 41\C,3.4304227594,-0.7282669616,0.5945237658\C,-1.239001754,0.,-3.3341
 42504\C,0.2520649907,3.0374790522,-1.8335255198\C,1.581460535,2.605532
 2561,-1.8335255177\C,-0.3828725949,-1.1783606968,-3.3341425029\C,1.002
 3734838,-0.7282669616,-3.3341425013\C,3.2033348918,-1.4271715593,-0.59
 45237568\C,2.9667066137,-0.6989045978,-1.8335255161\C,1.0023734838,0.7
 282669616,-3.3341425013\C,3.4304227594,0.7282669616,0.5945237658\C,2.3
 472057322,2.6055322561,-0.5945237579\C,1.9643331357,1.4271715593,-2.59
 92707165\C,3.2033348918,1.4271715593,-0.5945237568\C,2.9667066137,0.69
 89045978,-1.8335255161\He,0.5340785264,0.9788565607,-0.1405376904\He,-
 1.1016796243,0.,0.2600046133\He,0.5340785264,-0.9788565607,-0.14053769
 04\\Version=ES64L-G16RevB.01\State=1-A'\HF=-2279.8741389\MP2=-2285.746
 7382\RMSD=8.518e-09\RMSF=1.689e-05\Dipole=0.0003131,0.,0.0004136\PG=CS
  [SG(C4He1),X(C56He2)]\\@


 A HARD FALL SHOULD MEAN A HIGH BOUNCE 
 IF ONE IS MADE OF THE RIGHT MATERIAL.

                -- THE CHEMIST ANALYST, MARCH 1950
 Job cpu time:      14 days  7 hours 12 minutes 27.6 seconds.
 Elapsed time:       0 days 14 hours 43 minutes 28.1 seconds.
 File lengths (MBytes):  RWF= 411016 Int=      0 D2E=      0 Chk=     69 Scr=      1
 Normal termination of Gaussian 16 at Tue Apr  9 00:08:41 2024.
