
                                 *****************
                                 * O   R   C   A *
                                 *****************

                                            #,                                       
                                            ###                                      
                                            ####                                     
                                            #####                                    
                                            ######                                   
                                           ########,                                 
                                     ,,################,,,,,                         
                               ,,#################################,,                 
                          ,,##########################################,,             
                       ,#########################################, ''#####,          
                    ,#############################################,,   '####,        
                  ,##################################################,,,,####,       
                ,###########''''           ''''###############################       
              ,#####''   ,,,,##########,,,,          '''####'''          '####       
            ,##' ,,,,###########################,,,                        '##       
           ' ,,###''''                  '''############,,,                           
         ,,##''                                '''############,,,,        ,,,,,,###''
      ,#''                                            '''#######################'''  
     '                                                          ''''####''''         
             ,#######,   #######,   ,#######,      ##                                
            ,#'     '#,  ##    ##  ,#'     '#,    #''#        ######   ,####,        
            ##       ##  ##   ,#'  ##            #'  '#       #        #'  '#        
            ##       ##  #######   ##           ,######,      #####,   #    #        
            '#,     ,#'  ##    ##  '#,     ,#' ,#      #,         ##   #,  ,#        
             '#######'   ##     ##  '#######'  #'      '#     #####' # '####'        



                  #######################################################
                  #                        -***-                        #
                  #          Department of theory and spectroscopy      #
                  #    Directorship and core code : Frank Neese         #
                  #        Max Planck Institute fuer Kohlenforschung    #
                  #                Kaiser Wilhelm Platz 1               #
                  #                 D-45470 Muelheim/Ruhr               #
                  #                      Germany                        #
                  #                                                     #
                  #                  All rights reserved                #
                  #                        -***-                        #
                  #######################################################


                         Program Version 5.0.4 -  RELEASE  -


 With contributions from (in alphabetic order):
   Daniel Aravena         : Magnetic Suceptibility
   Michael Atanasov       : Ab Initio Ligand Field Theory (pilot matlab implementation)
   Alexander A. Auer      : GIAO ZORA, VPT2 properties, NMR spectrum
   Ute Becker             : Parallelization
   Giovanni Bistoni       : ED, misc. LED, open-shell LED, HFLD
   Martin Brehm           : Molecular dynamics
   Dmytro Bykov           : SCF Hessian
   Vijay G. Chilkuri      : MRCI spin determinant printing, contributions to CSF-ICE
   Dipayan Datta          : RHF DLPNO-CCSD density
   Achintya Kumar Dutta   : EOM-CC, STEOM-CC
   Dmitry Ganyushin       : Spin-Orbit,Spin-Spin,Magnetic field MRCI
   Miquel Garcia          : C-PCM and meta-GGA Hessian, CC/C-PCM, Gaussian charge scheme
   Yang Guo               : DLPNO-NEVPT2, F12-NEVPT2, CIM, IAO-localization
   Andreas Hansen         : Spin unrestricted coupled pair/coupled cluster methods
   Benjamin Helmich-Paris : MC-RPA, TRAH-SCF, COSX integrals
   Lee Huntington         : MR-EOM, pCC
   Robert Izsak           : Overlap fitted RIJCOSX, COSX-SCS-MP3, EOM
   Marcus Kettner         : VPT2
   Christian Kollmar      : KDIIS, OOCD, Brueckner-CCSD(T), CCSD density, CASPT2, CASPT2-K
   Simone Kossmann        : Meta GGA functionals, TD-DFT gradient, OOMP2, MP2 Hessian
   Martin Krupicka        : Initial AUTO-CI
   Lucas Lang             : DCDCAS
   Marvin Lechner         : AUTO-CI (C++ implementation), FIC-MRCC
   Dagmar Lenk            : GEPOL surface, SMD
   Dimitrios Liakos       : Extrapolation schemes; Compound Job, initial MDCI parallelization
   Dimitrios Manganas     : Further ROCIS development; embedding schemes
   Dimitrios Pantazis     : SARC Basis sets
   Anastasios Papadopoulos: AUTO-CI, single reference methods and gradients
   Taras Petrenko         : DFT Hessian,TD-DFT gradient, ASA, ECA, R-Raman, ABS, FL, XAS/XES, NRVS
   Peter Pinski           : DLPNO-MP2, DLPNO-MP2 Gradient
   Christoph Reimann      : Effective Core Potentials
   Marius Retegan         : Local ZFS, SOC
   Christoph Riplinger    : Optimizer, TS searches, QM/MM, DLPNO-CCSD(T), (RO)-DLPNO pert. Triples
   Tobias Risthaus        : Range-separated hybrids, TD-DFT gradient, RPA, STAB
   Michael Roemelt        : Original ROCIS implementation
   Masaaki Saitow         : Open-shell DLPNO-CCSD energy and density
   Barbara Sandhoefer     : DKH picture change effects
   Avijit Sen             : IP-ROCIS
   Kantharuban Sivalingam : CASSCF convergence, NEVPT2, FIC-MRCI
   Bernardo de Souza      : ESD, SOC TD-DFT
   Georgi Stoychev        : AutoAux, RI-MP2 NMR, DLPNO-MP2 response
   Willem Van den Heuvel  : Paramagnetic NMR
   Boris Wezisla          : Elementary symmetry handling
   Frank Wennmohs         : Technical directorship


 We gratefully acknowledge several colleagues who have allowed us to
 interface, adapt or use parts of their codes:
   Stefan Grimme, W. Hujo, H. Kruse, P. Pracht,  : VdW corrections, initial TS optimization,
                  C. Bannwarth, S. Ehlert          DFT functionals, gCP, sTDA/sTD-DF
   Ed Valeev, F. Pavosevic, A. Kumar             : LibInt (2-el integral package), F12 methods
   Garnet Chan, S. Sharma, J. Yang, R. Olivares  : DMRG
   Ulf Ekstrom                                   : XCFun DFT Library
   Mihaly Kallay                                 : mrcc  (arbitrary order and MRCC methods)
   Jiri Pittner, Ondrej Demel                    : Mk-CCSD
   Frank Weinhold                                : gennbo (NPA and NBO analysis)
   Christopher J. Cramer and Donald G. Truhlar   : smd solvation model
   Lars Goerigk                                  : TD-DFT with DH, B97 family of functionals
   V. Asgeirsson, H. Jonsson                     : NEB implementation
   FAccTs GmbH                                   : IRC, NEB, NEB-TS, DLPNO-Multilevel, CI-OPT
                                                   MM, QMMM, 2- and 3-layer-ONIOM, Crystal-QMMM,
                                                   LR-CPCM, SF, NACMEs, symmetry and pop. for TD-DFT,
                                                   nearIR, NL-DFT gradient (VV10), updates on ESD,
                                                   ML-optimized integration grids
   S Lehtola, MJT Oliveira, MAL Marques          : LibXC Library
   Liviu Ungur et al                             : ANISO software


 Your calculation uses the libint2 library for the computation of 2-el integrals
 For citations please refer to: http://libint.valeyev.net

 Your ORCA version has been built with support for libXC version: 5.1.0
 For citations please refer to: https://tddft.org/programs/libxc/

 This ORCA versions uses:
   CBLAS   interface :  Fast vector & matrix operations
   LAPACKE interface :  Fast linear algebra routines
   SCALAPACK package :  Parallel linear algebra routines
   Shared memory     :  Shared parallel matrices
   BLAS/LAPACK       :  OpenBLAS 0.3.15  USE64BITINT DYNAMIC_ARCH NO_AFFINITY Sandybridge SINGLE_THREADED
        Core in use  :  Sandybridge
   Copyright (c) 2011-2014, The OpenBLAS Project


================================================================================

----- Orbital basis set information -----
Your calculation utilizes the basis: cc-pVTZ 
       H, B-Ne : Obtained from the ccRepo (grant-hill.group.shef.ac.uk/ccrepo) Feb. 2017
                 T. H. Dunning, Jr., J. Chem. Phys. 90, 1007 (1989)
            He : Obtained from the ccRepo (grant-hill.group.shef.ac.uk/ccrepo) Feb. 2017
                 D. E. Woon, T. H. Dunning, Jr., J. Chem. Phys. 100, 2975 (1994)
  Li-Be, Na-Mg : Obtained from the ccRepo (grant-hill.group.shef.ac.uk/ccrepo) Feb. 2017
                 B. P. Prascher, D. E. Woon, K. A. Peterson, T. H. Dunning, Jr., A. K. Wilson, Theor. Chem. Acc. 128, 69 (2011)
         Al-Ar : Obtained from the ccRepo (grant-hill.group.shef.ac.uk/ccrepo) Feb. 2017
                 D. E. Woon, T. H. Dunning, Jr., J. Chem. Phys. 98, 1358 (1993)
            Ca : Obtained from the Peterson Research Group Website (tyr0.chem.wsu.edu/~kipeters) Feb. 2017
                 J. Koput, K. A. Peterson, J. Phys. Chem. 106, 9595 (2002)
         Sc-Zn : Obtained from the ccRepo (grant-hill.group.shef.ac.uk/ccrepo) Feb. 2017
                 N. B. Balabanov, K. A. Peterson, J. Chem. Phys. 123, 064107 (2005)
                 N. B. Balabanov, K. A. Peterson, J. Chem. Phys. 125, 074110 (2006)
         Ga-Kr : Obtained from the ccRepo (grant-hill.group.shef.ac.uk/ccrepo) Feb. 2017
                 A. K. Wilson, D. E. Woon, K. A. Peterson, T. H. Dunning, Jr., J. Chem. Phys. 110, 7667 (1999)
             Y : Obtained from the ccRepo (grant-hill.group.shef.ac.uk/ccrepo) Feb. 2017
                 K. A. Peterson, D. Figgen, M. Dolg, H. Stoll, J. Chem. Phys. 126, 124101 (2007)
        Ag, Au : Obtained from the Peterson Research Group Website (tyr0.chem.wsu.edu/~kipeters) Feb. 2017
                 K. A. Peterson, C. Puzzarini, Theor. Chem. Acc. 114, 283 (2005)

----- AuxJ basis set information -----
Your calculation utilizes the auxiliary basis: def2/J
   F. Weigend, Phys. Chem. Chem. Phys. 8, 1057 (2006).

================================================================================
                                        WARNINGS
                       Please study these warnings very carefully!
================================================================================

WARNING: Old DensityContainer found on disk!
         Will remove this file - 
         If you want to keep old densities, please start your calculation with a different basename. 


WARNING: Geometry Optimization
  ===> : Switching off AutoStart
         For restart on a previous wavefunction, please use MOREAD

INFO   : the flag for use of the SHARK integral package has been found!

================================================================================
                                       INPUT FILE
================================================================================
NAME = heliumrotconst.inp
|  1> #For obtaining rotational constants
|  2> !UHF B3LYP cc-pVTZ OPT FREQ
|  3> 
|  4> *xyz 0 1
|  5> He	0.5390456966        0.9788282225       -0.1383245163
|  6> He	-1.1024884940        0.0000000000        0.2641072565
|  7> He	0.5390456966       -0.9788282225       -0.1383245163
|  8> * 
|  9> 
| 10> 
| 11>                   
| 12>  
| 13> 
| 14>                          ****END OF INPUT****
================================================================================

                       *****************************
                       * Geometry Optimization Run *
                       *****************************

Geometry optimization settings:
Update method            Update   .... BFGS
Choice of coordinates    CoordSys .... Z-matrix Internals
Initial Hessian          InHess   .... Almoef's Model

Convergence Tolerances:
Energy Change            TolE     ....  5.0000e-06 Eh
Max. Gradient            TolMAXG  ....  3.0000e-04 Eh/bohr
RMS Gradient             TolRMSG  ....  1.0000e-04 Eh/bohr
Max. Displacement        TolMAXD  ....  4.0000e-03 bohr
RMS Displacement         TolRMSD  ....  2.0000e-03 bohr
Strict Convergence                ....  False
------------------------------------------------------------------------------
                        ORCA OPTIMIZATION COORDINATE SETUP
------------------------------------------------------------------------------

The optimization will be done in new redundant internal coordinates
Making redundant internal coordinates   ...  (new redundants) done
Evaluating the initial hessian          ...  (Almloef) done
Evaluating the coordinates              ...  done
Calculating the B-matrix                .... done
Calculating the G-matrix                .... done
Diagonalizing the G-matrix              .... done
The first mode is                       ....    3
The number of degrees of freedom        ....    3

    -----------------------------------------------------------------
                    Redundant Internal Coordinates


    -----------------------------------------------------------------
         Definition                    Initial Value    Approx d2E/dq
    -----------------------------------------------------------------
      1. B(He  1,He  0)                  1.9531         0.022639   
      2. B(He  2,He  1)                  1.9531         0.022639   
      3. B(He  2,He  0)                  1.9577         0.022265   
      4. A(He  1,He  0,He  2)           59.9232         0.151306   
      5. A(He  0,He  1,He  2)           60.1536         0.151541   
      6. A(He  0,He  2,He  1)           59.9232         0.151306   
    -----------------------------------------------------------------

Number of atoms                         .... 3
Number of degrees of freedom            .... 6

         *************************************************************
         *                GEOMETRY OPTIMIZATION CYCLE   1            *
         *************************************************************
---------------------------------
CARTESIAN COORDINATES (ANGSTROEM)
---------------------------------
  He     0.539046    0.978828   -0.138325
  He    -1.102488    0.000000    0.264107
  He     0.539046   -0.978828   -0.138325

----------------------------
CARTESIAN COORDINATES (A.U.)
----------------------------
  NO LB      ZA    FRAG     MASS         X           Y           Z
   0 He    2.0000    0     4.003    1.018649    1.849717   -0.261395
   1 He    2.0000    0     4.003   -2.083401    0.000000    0.499090
   2 He    2.0000    0     4.003    1.018649   -1.849717   -0.261395

--------------------------------
INTERNAL COORDINATES (ANGSTROEM)
--------------------------------
 He     0   0   0     0.000000000000     0.00000000     0.00000000
 He     1   0   0     1.953123273076     0.00000000     0.00000000
 He     2   1   0     1.953123273076    60.15361469     0.00000000

---------------------------
INTERNAL COORDINATES (A.U.)
---------------------------
 He     0   0   0     0.000000000000     0.00000000     0.00000000
 He     1   0   0     3.690868091901     0.00000000     0.00000000
 He     2   1   0     3.690868091901    60.15361469     0.00000000

---------------------
BASIS SET INFORMATION
---------------------
There are 1 groups of distinct atoms

 Group   1 Type He  : 6s2p1d contracted to 3s2p1d pattern {411/11/1}

Atom   0He   basis set group =>   1
Atom   1He   basis set group =>   1
Atom   2He   basis set group =>   1
---------------------------------
AUXILIARY/J BASIS SET INFORMATION
---------------------------------
There are 1 groups of distinct atoms

 Group   1 Type He  : 5s2p1d contracted to 3s1p1d pattern {311/2/1}

Atom   0He   basis set group =>   1
Atom   1He   basis set group =>   1
Atom   2He   basis set group =>   1
------------------------------------------------------------------------------
                           ORCA GTO INTEGRAL CALCULATION
                           -- RI-GTO INTEGRALS CHOSEN --
------------------------------------------------------------------------------
------------------------------------------------------------------------------
                   ___                                                        
                  /   \      - P O W E R E D   B Y -                         
                 /     \                                                     
                 |  |  |   _    _      __       _____    __    __             
                 |  |  |  | |  | |    /  \     |  _  \  |  |  /  |          
                  \  \/   | |  | |   /    \    | | | |  |  | /  /          
                 / \  \   | |__| |  /  /\  \   | |_| |  |  |/  /          
                |  |  |   |  __  | /  /__\  \  |    /   |      \           
                |  |  |   | |  | | |   __   |  |    \   |  |\   \          
                \     /   | |  | | |  |  |  |  | |\  \  |  | \   \       
                 \___/    |_|  |_| |__|  |__|  |_| \__\ |__|  \__/        
                                                                              
                      - O R C A' S   B I G   F R I E N D -                    
                                      &                                       
                       - I N T E G R A L  F E E D E R -                       
                                                                              
 v1 FN, 2020, v2 2021                                                         
------------------------------------------------------------------------------


Reading SHARK input file heliumrotconst.SHARKINP.tmp ... ok
----------------------
SHARK INTEGRAL PACKAGE
----------------------

Number of atoms                             ...      3
Number of basis functions                   ...     42
Number of shells                            ...     18
Maximum angular momentum                    ...      2
Integral batch strategy                     ... SHARK/LIBINT Hybrid
RI-J (if used) integral strategy            ... SPLIT-RIJ (Revised 2003 algorithm where possible)
Printlevel                                  ...      1
Contraction scheme used                     ... SEGMENTED contraction
Coulomb Range Separation                    ... NOT USED
Exchange Range Separation                   ... NOT USED
Finite Nucleus Model                        ... NOT USED
Auxiliary Coulomb fitting basis             ... AVAILABLE
   # of basis functions in Aux-J            ...     33
   # of shells in Aux-J                     ...     15
   Maximum angular momentum in Aux-J        ...      2
Auxiliary J/K fitting basis                 ... NOT available
Auxiliary Correlation fitting basis         ... NOT available
Auxiliary 'external' fitting basis          ... NOT available
Integral threshold                          ...     2.500000e-11
Primitive cut-off                           ...     2.500000e-12
Primitive pair pre-selection threshold      ...     2.500000e-12

Calculating pre-screening integrals         ... done (  0.0 sec) Dimension = 18
Organizing shell pair data                  ... done (  0.0 sec)
Shell pair information
Total number of shell pairs                 ...       171
Shell pairs after pre-screening             ...       171
Total number of primitive shell pairs       ...       396
Primitive shell pairs kept                  ...       351
          la=0 lb=0:     45 shell pairs
          la=1 lb=0:     54 shell pairs
          la=1 lb=1:     21 shell pairs
          la=2 lb=0:     27 shell pairs
          la=2 lb=1:     18 shell pairs
          la=2 lb=2:      6 shell pairs

Calculating one electron integrals          ... done (  0.0 sec)
Calculating RI/J V-Matrix + Cholesky decomp.... done (  0.0 sec)
Calculating Nuclear repulsion               ... done (  0.0 sec) ENN=      3.248758084856 Eh

SHARK setup successfully completed in   0.1 seconds

Maximum memory used throughout the entire GTOINT-calculation: 6.4 MB
-------------------------------------------------------------------------------
                                 ORCA SCF
-------------------------------------------------------------------------------

------------
SCF SETTINGS
------------
Hamiltonian:
 Density Functional     Method          .... DFT(GTOs)
 Exchange Functional    Exchange        .... B88
   X-Alpha parameter    XAlpha          ....  0.666667
   Becke's b parameter  XBeta           ....  0.004200
 Correlation Functional Correlation     .... LYP
 LDA part of GGA corr.  LDAOpt          .... VWN-5
 Gradients option       PostSCFGGA      .... off
 Hybrid DFT is turned on
   Fraction HF Exchange ScalHFX         ....  0.200000
   Scaling of DF-GGA-X  ScalDFX         ....  0.720000
   Scaling of DF-GGA-C  ScalDFC         ....  0.810000
   Scaling of DF-LDA-C  ScalLDAC        ....  1.000000
   Perturbative correction              ....  0.000000
   Density functional embedding theory  .... OFF
   NL short-range parameter             ....  4.800000
 RI-approximation to the Coulomb term is turned on
   Number of AuxJ basis functions       .... 33
   RIJ-COSX (HFX calculated with COS-X)).... on


General Settings:
 Integral files         IntName         .... heliumrotconst
 Hartree-Fock type      HFTyp           .... UHF
 Total Charge           Charge          ....    0
 Multiplicity           Mult            ....    1
 Number of Electrons    NEL             ....    6
 Basis Dimension        Dim             ....   42
 Nuclear Repulsion      ENuc            ....      3.2487580849 Eh

Convergence Acceleration:
 DIIS                   CNVDIIS         .... on
   Start iteration      DIISMaxIt       ....    12
   Startup error        DIISStart       ....  0.200000
   # of expansion vecs  DIISMaxEq       ....     5
   Bias factor          DIISBfac        ....   1.050
   Max. coefficient     DIISMaxC        ....  10.000
 Trust-Rad. Augm. Hess. CNVTRAH         .... auto
   Auto Start mean grad. ratio tolernc. ....  1.125000
   Auto Start start iteration           ....    20
   Auto Start num. interpolation iter.  ....    10
   Max. Number of Micro iterations      ....    16
   Max. Number of Macro iterations      .... Maxiter - #DIIS iter
   Number of Davidson start vectors     ....     2
   Converg. threshold I  (grad. norm)   ....   1.000e-05
   Converg. threshold II (energy diff.) ....   1.000e-08
   Grad. Scal. Fac. for Micro threshold ....   0.100
   Minimum threshold for Micro iter.    ....   0.010
   NR start threshold (gradient norm)   ....   0.001
   Initial trust radius                 ....   0.400
   Minimum AH scaling param. (alpha)    ....   1.000
   Maximum AH scaling param. (alpha)    .... 1000.000
   Orbital update algorithm             .... Taylor
   White noise on init. David. guess    .... on
   Maximum white noise                  ....   0.010
   Quad. conv. algorithm                .... NR
 SOSCF                  CNVSOSCF        .... off
 Level Shifting         CNVShift        .... on
   Level shift para.    LevelShift      ....    0.2500
   Turn off err/grad.   ShiftErr        ....    0.0010
 Zerner damping         CNVZerner       .... off
 Static damping         CNVDamp         .... on
   Fraction old density DampFac         ....    0.7000
   Max. Damping (<1)    DampMax         ....    0.9800
   Min. Damping (>=0)   DampMin         ....    0.0000
   Turn off err/grad.   DampErr         ....    0.1000
 Fernandez-Rico         CNVRico         .... off

SCF Procedure:
 Maximum # iterations   MaxIter         ....   125
 SCF integral mode      SCFMode         .... Direct
   Integral package                     .... SHARK and LIBINT hybrid scheme
 Reset frequency        DirectResetFreq ....    20
 Integral Threshold     Thresh          ....  2.500e-11 Eh
 Primitive CutOff       TCut            ....  2.500e-12 Eh

Convergence Tolerance:
 Convergence Check Mode ConvCheckMode   .... Total+1el-Energy
 Convergence forced     ConvForced      .... 0
 Energy Change          TolE            ....  1.000e-08 Eh
 1-El. energy change                    ....  1.000e-05 Eh
 DIIS Error             TolErr          ....  5.000e-07


Diagonalization of the overlap matrix:
Smallest eigenvalue                        ... 9.118e-02
Time for diagonalization                   ...    0.000 sec
Threshold for overlap eigenvalues          ... 1.000e-08
Number of eigenvalues below threshold      ... 0
Time for construction of square roots      ...    0.000 sec
Total time needed                          ...    0.001 sec

Time for model grid setup =    0.006 sec

------------------------------
INITIAL GUESS: MODEL POTENTIAL
------------------------------
Loading Hartree-Fock densities                     ... done
Calculating cut-offs                               ... done
Initializing the effective Hamiltonian             ... done
Setting up the integral package (SHARK)            ... done
Starting the Coulomb interaction                   ... done (   0.0 sec)
Reading the grid                                   ... done
Mapping shells                                     ... done
Starting the XC term evaluation                    ... done (   0.0 sec)
  promolecular density results
     # of electrons  =      5.999552325
     EX              =     -3.075480881
     EC              =     -0.136878474
     EX+EC           =     -3.212359355
Transforming the Hamiltonian                       ... done (   0.0 sec)
Diagonalizing the Hamiltonian                      ... done (   0.0 sec)
Back transforming the eigenvectors                 ... done (   0.0 sec)
Now organizing SCF variables                       ... done
                      ------------------
                      INITIAL GUESS DONE (   0.0 sec)
                      ------------------
-------------------
DFT GRID GENERATION
-------------------

General Integration Accuracy     IntAcc      ... 4.388
Radial Grid Type                 RadialGrid  ... OptM3 with GC (2021)
Angular Grid (max. ang.)         AngularGrid ... 4 (Lebedev-302)
Angular grid pruning method      GridPruning ... 4 (adaptive)
Weight generation scheme         WeightScheme... Becke
Basis function cutoff            BFCut       ... 1.0000e-11
Integration weight cutoff        WCut        ... 1.0000e-14
Angular grids for H and He will be reduced by one unit
Partially contracted basis set               ... off
Rotationally invariant grid construction     ... off

Total number of grid points                  ...     9988
Total number of batches                      ...      157
Average number of points per batch           ...       63
Average number of grid points per atom       ...     3329
Time for grid setup =    0.036 sec

--------------------
COSX GRID GENERATION
--------------------

GRIDX 1
-------
General Integration Accuracy     IntAcc      ... 3.816
Radial Grid Type                 RadialGrid  ... OptM3 with GC (2021)
Angular Grid (max. ang.)         AngularGrid ... 1 (Lebedev-50)
Angular grid pruning method      GridPruning ... 4 (adaptive)
Weight generation scheme         WeightScheme... Becke
Basis function cutoff            BFCut       ... 1.0000e-11
Integration weight cutoff        WCut        ... 1.0000e-14
Angular grids for H and He will be reduced by one unit
Partially contracted basis set               ... on
Rotationally invariant grid construction     ... off

Total number of grid points                  ...     1342
Total number of batches                      ...       23
Average number of points per batch           ...       58
Average number of grid points per atom       ...      447
UseSFitting                                  ... on

GRIDX 2
-------
General Integration Accuracy     IntAcc      ... 4.020
Radial Grid Type                 RadialGrid  ... OptM3 with GC (2021)
Angular Grid (max. ang.)         AngularGrid ... 2 (Lebedev-110)
Angular grid pruning method      GridPruning ... 4 (adaptive)
Weight generation scheme         WeightScheme... Becke
Basis function cutoff            BFCut       ... 1.0000e-11
Integration weight cutoff        WCut        ... 1.0000e-14
Angular grids for H and He will be reduced by one unit
Partially contracted basis set               ... on
Rotationally invariant grid construction     ... off

Total number of grid points                  ...     2452
Total number of batches                      ...       40
Average number of points per batch           ...       61
Average number of grid points per atom       ...      817
UseSFitting                                  ... on

GRIDX 3
-------
General Integration Accuracy     IntAcc      ... 4.338
Radial Grid Type                 RadialGrid  ... OptM3 with GC (2021)
Angular Grid (max. ang.)         AngularGrid ... 3 (Lebedev-194)
Angular grid pruning method      GridPruning ... 4 (adaptive)
Weight generation scheme         WeightScheme... Becke
Basis function cutoff            BFCut       ... 1.0000e-11
Integration weight cutoff        WCut        ... 1.0000e-14
Angular grids for H and He will be reduced by one unit
Partially contracted basis set               ... on
Rotationally invariant grid construction     ... off

Total number of grid points                  ...     5396
Total number of batches                      ...       86
Average number of points per batch           ...       62
Average number of grid points per atom       ...     1799
UseSFitting                                  ... on

Time for X-Grid setup             =    0.031 sec

--------------
SCF ITERATIONS
--------------
ITER       Energy         Delta-E        Max-DP      RMS-DP      [F,P]     Damp
               ***  Starting incremental Fock matrix formation  ***
  0     -8.7154330169   0.000000000000 0.00232027  0.00012857  0.0050811 0.7000
  1     -8.7155300934  -0.000097076421 0.00188892  0.00010530  0.0036917 0.7000
                               ***Turning on DIIS***
  2     -8.7155999630  -0.000069869672 0.00453984  0.00025268  0.0027056 0.0000
  3     -8.7157643741  -0.000164411121 0.00011928  0.00000828  0.0003162 0.0000
               *** Restarting incremental Fock matrix formation ***
                                   *** Resetting DIIS ***
  4     -8.7157628115   0.000001562633 0.00005494  0.00000327  0.0000881 0.0000
  5     -8.7157628371  -0.000000025581 0.00001220  0.00000073  0.0000252 0.0000
                 **** Energy Check signals convergence ****

               *****************************************************
               *                     SUCCESS                       *
               *           SCF CONVERGED AFTER   6 CYCLES          *
               *****************************************************

Old exchange energy                            =     -0.613827765 Eh
New exchange energy                            =     -0.613821378 Eh
Exchange energy change after final integration =      0.000006387 Eh
Total energy after final integration           =     -8.715756451 Eh
Final COS-X integration done in                =     0.092 sec

----------------
TOTAL SCF ENERGY
----------------

Total Energy       :           -8.71575645 Eh            -237.16779 eV

Components:
Nuclear Repulsion  :            3.24875808 Eh              88.40320 eV
Electronic Energy  :          -11.96451454 Eh            -325.57099 eV
One Electron Energy:          -18.12122646 Eh            -493.10364 eV
Two Electron Energy:            6.15671193 Eh             167.53265 eV
Max COSX asymmetry :            0.00000060 Eh               0.00002 eV

Virial components:
Potential Energy   :          -17.37153862 Eh            -472.70360 eV
Kinetic Energy     :            8.65578216 Eh             235.53581 eV
Virial Ratio       :            2.00692881


DFT components:
N(Alpha)           :        3.000001127444 electrons
N(Beta)            :        3.000001127444 electrons
N(Total)           :        6.000002254888 electrons
E(X)               :       -2.423294742462 Eh       
E(C)               :       -0.175344403757 Eh       
E(XC)              :       -2.598639146219 Eh       
DFET-embed. en.    :        0.000000000000 Eh       

---------------
SCF CONVERGENCE
---------------

  Last Energy change         ...   -1.3734e-09  Tolerance :   1.0000e-08
  Last MAX-Density change    ...    0.0000e+00  Tolerance :   1.0000e-07
  Last RMS-Density change    ...    0.0000e+00  Tolerance :   5.0000e-09
  Last DIIS Error            ...    5.4205e-07  Tolerance :   5.0000e-07

             **** THE GBW FILE WAS UPDATED (heliumrotconst.gbw) ****
             **** DENSITY heliumrotconst.scfp WAS UPDATED ****
             **** ENERGY FILE WAS UPDATED (heliumrotconst.en.tmp) ****
----------------------
UHF SPIN CONTAMINATION
----------------------

Warning: in a DFT calculation there is little theoretical justification to 
         calculate <S**2> as in Hartree-Fock theory. We will do it anyways
         but you should keep in mind that the values have only limited relevance

Expectation value of <S**2>     :    -0.000000
Ideal value S*(S+1) for S=0.0   :     0.000000
Deviation                       :    -0.000000

             **** THE GBW FILE WAS UPDATED (heliumrotconst.gbw) ****
             **** DENSITY heliumrotconst.scfp WAS UPDATED ****
----------------
ORBITAL ENERGIES
----------------
                 SPIN UP ORBITALS
  NO   OCC          E(Eh)            E(eV) 
   0   1.0000      -0.697779       -18.9875 
   1   1.0000      -0.633987       -17.2517 
   2   1.0000      -0.633659       -17.2427 
   3   0.0000       0.452942        12.3252 
   4   0.0000       0.526346        14.3226 
   5   0.0000       0.526543        14.3280 
   6   0.0000       1.079623        29.3780 
   7   0.0000       1.155440        31.4411 
   8   0.0000       1.156976        31.4829 
   9   0.0000       1.201938        32.7064 
  10   0.0000       1.265052        34.4238 
  11   0.0000       1.265599        34.4387 
  12   0.0000       1.354750        36.8646 
  13   0.0000       1.523600        41.4593 
  14   0.0000       1.525972        41.5238 
  15   0.0000       4.163207       113.2866 
  16   0.0000       4.163328       113.2899 
  17   0.0000       4.238718       115.3414 
  18   0.0000       5.927579       161.2976 
  19   0.0000       5.927798       161.3036 
  20   0.0000       5.929268       161.3436 
  21   0.0000       5.930964       161.3897 
  22   0.0000       5.931996       161.4178 
  23   0.0000       5.932028       161.4187 
  24   0.0000       5.932152       161.4221 
  25   0.0000       5.933074       161.4471 
  26   0.0000       5.933092       161.4476 
  27   0.0000       5.933226       161.4513 
  28   0.0000       5.933441       161.4571 
  29   0.0000       5.933570       161.4607 
  30   0.0000       5.939473       161.6213 
  31   0.0000       5.952801       161.9839 
  32   0.0000       5.952928       161.9874 
  33   0.0000       7.155750       194.7179 
  34   0.0000       7.240022       197.0110 
  35   0.0000       7.241328       197.0466 
  36   0.0000       7.285895       198.2593 
  37   0.0000       7.343847       199.8362 
  38   0.0000       7.344416       199.8517 
  39   0.0000       7.437717       202.3906 
  40   0.0000       7.594337       206.6524 
  41   0.0000       7.596945       206.7234 

                 SPIN DOWN ORBITALS
  NO   OCC          E(Eh)            E(eV) 
   0   1.0000      -0.697779       -18.9875 
   1   1.0000      -0.633987       -17.2517 
   2   1.0000      -0.633659       -17.2427 
   3   0.0000       0.452942        12.3252 
   4   0.0000       0.526346        14.3226 
   5   0.0000       0.526543        14.3280 
   6   0.0000       1.079623        29.3780 
   7   0.0000       1.155440        31.4411 
   8   0.0000       1.156976        31.4829 
   9   0.0000       1.201938        32.7064 
  10   0.0000       1.265052        34.4238 
  11   0.0000       1.265599        34.4387 
  12   0.0000       1.354750        36.8646 
  13   0.0000       1.523600        41.4593 
  14   0.0000       1.525972        41.5238 
  15   0.0000       4.163207       113.2866 
  16   0.0000       4.163328       113.2899 
  17   0.0000       4.238718       115.3414 
  18   0.0000       5.927579       161.2976 
  19   0.0000       5.927798       161.3036 
  20   0.0000       5.929268       161.3436 
  21   0.0000       5.930964       161.3897 
  22   0.0000       5.931996       161.4178 
  23   0.0000       5.932028       161.4187 
  24   0.0000       5.932152       161.4221 
  25   0.0000       5.933074       161.4471 
  26   0.0000       5.933092       161.4476 
  27   0.0000       5.933226       161.4513 
  28   0.0000       5.933441       161.4571 
  29   0.0000       5.933570       161.4607 
  30   0.0000       5.939473       161.6213 
  31   0.0000       5.952801       161.9839 
  32   0.0000       5.952928       161.9874 
  33   0.0000       7.155750       194.7179 
  34   0.0000       7.240022       197.0110 
  35   0.0000       7.241328       197.0466 
  36   0.0000       7.285895       198.2593 
  37   0.0000       7.343847       199.8362 
  38   0.0000       7.344416       199.8517 
  39   0.0000       7.437717       202.3906 
  40   0.0000       7.594337       206.6524 
  41   0.0000       7.596945       206.7234 

                    ********************************
                    * MULLIKEN POPULATION ANALYSIS *
                    ********************************

--------------------------------------------
MULLIKEN ATOMIC CHARGES AND SPIN POPULATIONS
--------------------------------------------
   0 He:   -0.000000    0.000000
   1 He:    0.000000    0.000000
   2 He:   -0.000000    0.000000
Sum of atomic charges         :   -0.0000000
Sum of atomic spin populations:    0.0000000

-----------------------------------------------------
MULLIKEN REDUCED ORBITAL CHARGES AND SPIN POPULATIONS
-----------------------------------------------------
CHARGE
  0 Hes       :     1.999166  s :     1.999166
      pz      :     0.000019  p :     0.000820
      px      :     0.000319
      py      :     0.000482
      dz2     :     0.000003  d :     0.000015
      dxz     :     0.000001
      dyz     :     0.000000
      dx2y2   :     0.000007
      dxy     :     0.000004
  1 Hes       :     1.999155  s :     1.999155
      pz      :     0.000032  p :     0.000830
      px      :     0.000533
      py      :     0.000265
      dz2     :     0.000002  d :     0.000015
      dxz     :     0.000001
      dyz     :     0.000001
      dx2y2   :     0.000002
      dxy     :     0.000008
  2 Hes       :     1.999166  s :     1.999166
      pz      :     0.000019  p :     0.000820
      px      :     0.000319
      py      :     0.000482
      dz2     :     0.000003  d :     0.000015
      dxz     :     0.000001
      dyz     :     0.000000
      dx2y2   :     0.000007
      dxy     :     0.000004

SPIN
  0 Hes       :     0.000000  s :     0.000000
      pz      :     0.000000  p :     0.000000
      px      :     0.000000
      py      :     0.000000
      dz2     :     0.000000  d :     0.000000
      dxz     :     0.000000
      dyz     :     0.000000
      dx2y2   :     0.000000
      dxy     :     0.000000
  1 Hes       :     0.000000  s :     0.000000
      pz      :     0.000000  p :     0.000000
      px      :     0.000000
      py      :     0.000000
      dz2     :     0.000000  d :     0.000000
      dxz     :     0.000000
      dyz     :     0.000000
      dx2y2   :     0.000000
      dxy     :     0.000000
  2 Hes       :     0.000000  s :     0.000000
      pz      :     0.000000  p :     0.000000
      px      :     0.000000
      py      :     0.000000
      dz2     :     0.000000  d :     0.000000
      dxz     :     0.000000
      dyz     :     0.000000
      dx2y2   :     0.000000
      dxy     :     0.000000


                     *******************************
                     * LOEWDIN POPULATION ANALYSIS *
                     *******************************

-------------------------------------------
LOEWDIN ATOMIC CHARGES AND SPIN POPULATIONS
-------------------------------------------
   0 He:    0.000003    0.000000
   1 He:   -0.000005    0.000000
   2 He:    0.000003    0.000000

----------------------------------------------------
LOEWDIN REDUCED ORBITAL CHARGES AND SPIN POPULATIONS
----------------------------------------------------
CHARGE
  0 Hes       :     1.997925  s :     1.997925
      pz      :     0.000048  p :     0.002017
      px      :     0.000800
      py      :     0.001169
      dz2     :     0.000010  d :     0.000055
      dxz     :     0.000002
      dyz     :     0.000001
      dx2y2   :     0.000028
      dxy     :     0.000015
  1 Hes       :     1.997906  s :     1.997906
      pz      :     0.000077  p :     0.002043
      px      :     0.001286
      py      :     0.000679
      dz2     :     0.000009  d :     0.000056
      dxz     :     0.000004
      dyz     :     0.000002
      dx2y2   :     0.000007
      dxy     :     0.000034
  2 Hes       :     1.997925  s :     1.997925
      pz      :     0.000048  p :     0.002017
      px      :     0.000800
      py      :     0.001169
      dz2     :     0.000010  d :     0.000055
      dxz     :     0.000002
      dyz     :     0.000001
      dx2y2   :     0.000028
      dxy     :     0.000015

SPIN
  0 Hes       :     0.000000  s :     0.000000
      pz      :     0.000000  p :     0.000000
      px      :     0.000000
      py      :     0.000000
      dz2     :     0.000000  d :     0.000000
      dxz     :     0.000000
      dyz     :     0.000000
      dx2y2   :     0.000000
      dxy     :     0.000000
  1 Hes       :     0.000000  s :     0.000000
      pz      :     0.000000  p :     0.000000
      px      :     0.000000
      py      :     0.000000
      dz2     :     0.000000  d :     0.000000
      dxz     :     0.000000
      dyz     :     0.000000
      dx2y2   :     0.000000
      dxy     :     0.000000
  2 Hes       :     0.000000  s :     0.000000
      pz      :     0.000000  p :     0.000000
      px      :     0.000000
      py      :     0.000000
      dz2     :     0.000000  d :     0.000000
      dxz     :     0.000000
      dyz     :     0.000000
      dx2y2   :     0.000000
      dxy     :     0.000000


                      *****************************
                      * MAYER POPULATION ANALYSIS *
                      *****************************

  NA   - Mulliken gross atomic population
  ZA   - Total nuclear charge
  QA   - Mulliken gross atomic charge
  VA   - Mayer's total valence
  BVA  - Mayer's bonded valence
  FA   - Mayer's free valence

  ATOM       NA         ZA         QA         VA         BVA        FA
  0 He     2.0000     2.0000    -0.0000    -0.0027    -0.0027    -0.0000
  1 He     2.0000     2.0000     0.0000    -0.0028    -0.0028    -0.0000
  2 He     2.0000     2.0000    -0.0000    -0.0027    -0.0027    -0.0000

  Mayer bond orders larger than 0.100000


-------
TIMINGS
-------

Total SCF time: 0 days 0 hours 0 min 0 sec 

Total time                  ....       0.911 sec
Sum of individual times     ....       0.869 sec  ( 95.4%)

Fock matrix formation       ....       0.780 sec  ( 85.6%)
  Split-RI-J                ....       0.115 sec  ( 14.7% of F)
  Chain of spheres X        ....       0.428 sec  ( 54.8% of F)
  XC integration            ....       0.236 sec  ( 30.3% of F)
    Basis function eval.    ....       0.065 sec  ( 27.6% of XC)
    Density eval.           ....       0.067 sec  ( 28.2% of XC)
    XC-Functional eval.     ....       0.051 sec  ( 21.8% of XC)
    XC-Potential eval.      ....       0.038 sec  ( 16.2% of XC)
Diagonalization             ....       0.005 sec  (  0.6%)
Density matrix formation    ....       0.000 sec  (  0.0%)
Population analysis         ....       0.002 sec  (  0.2%)
Initial guess               ....       0.007 sec  (  0.8%)
Orbital Transformation      ....       0.000 sec  (  0.0%)
Orbital Orthonormalization  ....       0.000 sec  (  0.0%)
DIIS solution               ....       0.001 sec  (  0.1%)
Grid generation             ....       0.073 sec  (  8.0%)

Maximum memory used throughout the entire SCF-calculation: 41.5 MB

-------------------------   --------------------
FINAL SINGLE POINT ENERGY        -8.715756451186
-------------------------   --------------------

------------------------------------------------------------------------------
                         ORCA SCF GRADIENT CALCULATION
------------------------------------------------------------------------------

 ... reading COSX grid (gridx3)
Gradient of the Kohn-Sham DFT energy:
Kohn-Sham wavefunction type      ... UKS
Hartree-Fock exchange scaling    ...    0.200
Number of operators              ...    2
Number of atoms                  ...    3
Basis set dimensions             ...   42
Integral neglect threshold       ... 2.5e-11
Integral primitive cutoff        ... 2.5e-12
SHARK Integral package           ... ON

Nuc. rep. gradient       (SHARK) ... done (  0.0 sec)
HCore & Overlap gradient (SHARK) ... done (  0.0 sec)
RI-J gradient            (SHARK) ... done (  0.0 sec)
COSX-gradient                    ... done (  0.2 sec)
Exchange-correlation gradient    ... done

------------------
CARTESIAN GRADIENT
------------------

   1   He  :   -0.004437819   -0.007847752    0.001074085
   2   He  :    0.008898725   -0.000000011   -0.002156614
   3   He  :   -0.004437834    0.007847762    0.001074093

Difference to translation invariance:
           :    0.0000230730   -0.0000000009   -0.0000084349

Difference to rotation invariance:
           :   -0.0000000069    0.0000799924    0.0000000053

Norm of the cartesian gradient     ...    0.0157705041
RMS gradient                       ...    0.0052568347
MAX gradient                       ...    0.0088987253

-------
TIMINGS
-------

Total SCF gradient time            ...        0.427 sec

One electron gradient       ....       0.003 sec  (  0.8%)
RI-J Coulomb gradient       ....       0.036 sec  (  8.3%)
COSX gradient               ....       0.151 sec  ( 35.4%)
XC gradient                 ....       0.144 sec  ( 33.7%)

Maximum memory used throughout the entire SCFGRAD-calculation: 31.7 MB
------------------------------------------------------------------------------
                         ORCA GEOMETRY RELAXATION STEP
------------------------------------------------------------------------------

Reading the OPT-File                    .... done
Getting information on internals        .... done
Copying old internal coords+grads       .... done
Making the new internal coordinates     .... (new redundants).... done
Validating the new internal coordinates .... (new redundants).... done
Calculating the B-matrix                .... done
Calculating the G,G- and P matrices     .... done
Transforming gradient to internals      .... done
Projecting the internal gradient        .... done
Number of atoms                         ....   3
Number of internal coordinates          ....   6
Current Energy                          ....    -8.715756451 Eh
Current gradient norm                   ....     0.015770504 Eh/bohr
Maximum allowed component of the step   ....  0.300
Current trust radius                    ....  0.300
Evaluating the initial hessian          ....  (Almloef) done
Projecting the Hessian                  .... done
Forming the augmented Hessian           .... done
Diagonalizing the augmented Hessian     .... done
Last element of RFO vector              ....  0.942740150
Lowest eigenvalues of augmented Hessian:
 -0.003221210  0.025733958  0.045743249  0.045745846 1000.000000000
Length of the computed step             ....  0.353785849
Warning: the length of the step is outside the trust region - taking restricted step instead
The input lambda is                     ....    -0.003221
   iter:   1  x=   -0.006836  g=    9.727120 f(x)=     0.035164
   iter:   2  x=   -0.007786  g=    6.557336 f(x)=     0.006230
   iter:   3  x=   -0.007835  g=    5.959629 f(x)=     0.000290
   iter:   4  x=   -0.007835  g=    5.931011 f(x)=     0.000001
   iter:   5  x=   -0.007835  g=    5.930942 f(x)=     0.000000
   iter:   6  x=   -0.007835  g=    5.930942 f(x)=    -0.000000
The output lambda is                    ....    -0.007835 (6 iterations)
The final length of the internal step   ....  0.300000000
Converting the step to cartesian space:
 Initial RMS(Int)=    0.1224744871
Transforming coordinates:
 Iter   0:  RMS(Cart)=    0.0577350733 RMS(Int)=    0.1224744904
 Iter   1:  RMS(Cart)=    0.0000009475 RMS(Int)=    0.0000015568
 Iter   2:  RMS(Cart)=    0.0000000077 RMS(Int)=    0.0000000126
done
Storing new coordinates                 .... done

                                .--------------------.
          ----------------------|Geometry convergence|-------------------------
          Item                value                   Tolerance       Converged
          ---------------------------------------------------------------------
          RMS gradient        0.0037171820            0.0001000000      NO
          MAX gradient        0.0052797982            0.0003000000      NO
          RMS step            0.1224744871            0.0020000000      NO
          MAX step            0.1732467617            0.0040000000      NO
          ........................................................
          Max(Bonds)      0.0917      Max(Angles)    0.01
          Max(Dihed)        0.00      Max(Improp)    0.00
          ---------------------------------------------------------------------

The optimization has not yet converged - more geometry cycles are needed


    ---------------------------------------------------------------------------
                         Redundant Internal Coordinates
                            (Angstroem and degrees)

        Definition                    Value    dE/dq     Step     New-Value
    ----------------------------------------------------------------------------
     1. B(He  1,He  0)                1.9531 -0.005280  0.0917    2.0448   
     2. B(He  2,He  1)                1.9531 -0.005280  0.0917    2.0448   
     3. B(He  2,He  0)                1.9577 -0.005211  0.0916    2.0493   
     4. A(He  1,He  0,He  2)           59.92 -0.000013    0.00     59.93   
     5. A(He  0,He  1,He  2)           60.15  0.000025   -0.01     60.14   
     6. A(He  0,He  2,He  1)           59.92 -0.000013    0.00     59.93   
    ----------------------------------------------------------------------------

         *************************************************************
         *                GEOMETRY OPTIMIZATION CYCLE   2            *
         *************************************************************
---------------------------------
CARTESIAN COORDINATES (ANGSTROEM)
---------------------------------
  He     0.564756    1.024634   -0.144628
  He    -1.153910    0.000000    0.276714
  He     0.564756   -1.024634   -0.144628

----------------------------
CARTESIAN COORDINATES (A.U.)
----------------------------
  NO LB      ZA    FRAG     MASS         X           Y           Z
   0 He    2.0000    0     4.003    1.067235    1.936277   -0.273307
   1 He    2.0000    0     4.003   -2.180574    0.000000    0.522913
   2 He    2.0000    0     4.003    1.067235   -1.936277   -0.273307

--------------------------------
INTERNAL COORDINATES (ANGSTROEM)
--------------------------------
 He     0   0   0     0.000000000000     0.00000000     0.00000000
 He     1   0   0     2.044802106340     0.00000000     0.00000000
 He     2   1   0     2.044802272367    60.14451399     0.00000000

---------------------------
INTERNAL COORDINATES (A.U.)
---------------------------
 He     0   0   0     0.000000000000     0.00000000     0.00000000
 He     1   0   0     3.864115979048     0.00000000     0.00000000
 He     2   1   0     3.864116292793    60.14451399     0.00000000

------------------------------------------------------------------------------
                   ___                                                        
                  /   \      - P O W E R E D   B Y -                         
                 /     \                                                     
                 |  |  |   _    _      __       _____    __    __             
                 |  |  |  | |  | |    /  \     |  _  \  |  |  /  |          
                  \  \/   | |  | |   /    \    | | | |  |  | /  /          
                 / \  \   | |__| |  /  /\  \   | |_| |  |  |/  /          
                |  |  |   |  __  | /  /__\  \  |    /   |      \           
                |  |  |   | |  | | |   __   |  |    \   |  |\   \          
                \     /   | |  | | |  |  |  |  | |\  \  |  | \   \       
                 \___/    |_|  |_| |__|  |__|  |_| \__\ |__|  \__/        
                                                                              
                      - O R C A' S   B I G   F R I E N D -                    
                                      &                                       
                       - I N T E G R A L  F E E D E R -                       
                                                                              
 v1 FN, 2020, v2 2021                                                         
------------------------------------------------------------------------------


Reading SHARK input file heliumrotconst.SHARKINP.tmp ... ok
----------------------
SHARK INTEGRAL PACKAGE
----------------------

Number of atoms                             ...      3
Number of basis functions                   ...     42
Number of shells                            ...     18
Maximum angular momentum                    ...      2
Integral batch strategy                     ... SHARK/LIBINT Hybrid
RI-J (if used) integral strategy            ... SPLIT-RIJ (Revised 2003 algorithm where possible)
Printlevel                                  ...      1
Contraction scheme used                     ... SEGMENTED contraction
Coulomb Range Separation                    ... NOT USED
Exchange Range Separation                   ... NOT USED
Finite Nucleus Model                        ... NOT USED
Auxiliary Coulomb fitting basis             ... AVAILABLE
   # of basis functions in Aux-J            ...     33
   # of shells in Aux-J                     ...     15
   Maximum angular momentum in Aux-J        ...      2
Auxiliary J/K fitting basis                 ... NOT available
Auxiliary Correlation fitting basis         ... NOT available
Auxiliary 'external' fitting basis          ... NOT available
Integral threshold                          ...     2.500000e-11
Primitive cut-off                           ...     2.500000e-12
Primitive pair pre-selection threshold      ...     2.500000e-12

Calculating pre-screening integrals         ... done (  0.0 sec) Dimension = 18
Organizing shell pair data                  ... done (  0.0 sec)
Shell pair information
Total number of shell pairs                 ...       171
Shell pairs after pre-screening             ...       171
Total number of primitive shell pairs       ...       396
Primitive shell pairs kept                  ...       339
          la=0 lb=0:     45 shell pairs
          la=1 lb=0:     54 shell pairs
          la=1 lb=1:     21 shell pairs
          la=2 lb=0:     27 shell pairs
          la=2 lb=1:     18 shell pairs
          la=2 lb=2:      6 shell pairs

Calculating one electron integrals          ... done (  0.0 sec)
Calculating RI/J V-Matrix + Cholesky decomp.... done (  0.0 sec)
Calculating Nuclear repulsion               ... done (  0.0 sec) ENN=      3.103241330880 Eh

SHARK setup successfully completed in   0.1 seconds

Maximum memory used throughout the entire GTOINT-calculation: 6.4 MB

Diagonalization of the overlap matrix:
Smallest eigenvalue                        ... 9.279e-02
Time for diagonalization                   ...    0.000 sec
Threshold for overlap eigenvalues          ... 1.000e-08
Number of eigenvalues below threshold      ... 0
Time for construction of square roots      ...    0.000 sec
Total time needed                          ...    0.001 sec

-------------------
DFT GRID GENERATION
-------------------

General Integration Accuracy     IntAcc      ... 4.388
Radial Grid Type                 RadialGrid  ... OptM3 with GC (2021)
Angular Grid (max. ang.)         AngularGrid ... 4 (Lebedev-302)
Angular grid pruning method      GridPruning ... 4 (adaptive)
Weight generation scheme         WeightScheme... Becke
Basis function cutoff            BFCut       ... 1.0000e-11
Integration weight cutoff        WCut        ... 1.0000e-14
Angular grids for H and He will be reduced by one unit
Partially contracted basis set               ... off
Rotationally invariant grid construction     ... off

Total number of grid points                  ...     9988
Total number of batches                      ...      157
Average number of points per batch           ...       63
Average number of grid points per atom       ...     3329
Time for grid setup =    0.037 sec

--------------------
COSX GRID GENERATION
--------------------

GRIDX 1
-------
General Integration Accuracy     IntAcc      ... 3.816
Radial Grid Type                 RadialGrid  ... OptM3 with GC (2021)
Angular Grid (max. ang.)         AngularGrid ... 1 (Lebedev-50)
Angular grid pruning method      GridPruning ... 4 (adaptive)
Weight generation scheme         WeightScheme... Becke
Basis function cutoff            BFCut       ... 1.0000e-11
Integration weight cutoff        WCut        ... 1.0000e-14
Angular grids for H and He will be reduced by one unit
Partially contracted basis set               ... on
Rotationally invariant grid construction     ... off

Total number of grid points                  ...     1342
Total number of batches                      ...       23
Average number of points per batch           ...       58
Average number of grid points per atom       ...      447
UseSFitting                                  ... on

GRIDX 2
-------
General Integration Accuracy     IntAcc      ... 4.020
Radial Grid Type                 RadialGrid  ... OptM3 with GC (2021)
Angular Grid (max. ang.)         AngularGrid ... 2 (Lebedev-110)
Angular grid pruning method      GridPruning ... 4 (adaptive)
Weight generation scheme         WeightScheme... Becke
Basis function cutoff            BFCut       ... 1.0000e-11
Integration weight cutoff        WCut        ... 1.0000e-14
Angular grids for H and He will be reduced by one unit
Partially contracted basis set               ... on
Rotationally invariant grid construction     ... off

Total number of grid points                  ...     2452
Total number of batches                      ...       40
Average number of points per batch           ...       61
Average number of grid points per atom       ...      817
UseSFitting                                  ... on

GRIDX 3
-------
General Integration Accuracy     IntAcc      ... 4.338
Radial Grid Type                 RadialGrid  ... OptM3 with GC (2021)
Angular Grid (max. ang.)         AngularGrid ... 3 (Lebedev-194)
Angular grid pruning method      GridPruning ... 4 (adaptive)
Weight generation scheme         WeightScheme... Becke
Basis function cutoff            BFCut       ... 1.0000e-11
Integration weight cutoff        WCut        ... 1.0000e-14
Angular grids for H and He will be reduced by one unit
Partially contracted basis set               ... on
Rotationally invariant grid construction     ... off

Total number of grid points                  ...     5398
Total number of batches                      ...       86
Average number of points per batch           ...       62
Average number of grid points per atom       ...     1799
UseSFitting                                  ... on

Time for X-Grid setup             =    0.030 sec

--------------
SCF ITERATIONS
--------------
ITER       Energy         Delta-E        Max-DP      RMS-DP      [F,P]     Damp
               ***  Starting incremental Fock matrix formation  ***
  0     -8.7179547023   0.000000000000 0.00024521  0.00001963  0.0019218 0.7000
  1     -8.7179669596  -0.000012257248 0.00022451  0.00001767  0.0014406 0.7000
                               ***Turning on DIIS***
  2     -8.7179759182  -0.000008958645 0.00056427  0.00004398  0.0010386 0.0000
  3     -8.7179973266  -0.000021408359 0.00003872  0.00000315  0.0000671 0.0000
               *** Restarting incremental Fock matrix formation ***
                                   *** Resetting DIIS ***
  4     -8.7179974424  -0.000000115894 0.00001177  0.00000071  0.0000195 0.0000
  5     -8.7179974440  -0.000000001509 0.00000255  0.00000015  0.0000055 0.0000
                 **** Energy Check signals convergence ****

               *****************************************************
               *                     SUCCESS                       *
               *           SCF CONVERGED AFTER   6 CYCLES          *
               *****************************************************

Old exchange energy                            =     -0.613064976 Eh
New exchange energy                            =     -0.613064198 Eh
Exchange energy change after final integration =      0.000000778 Eh
Total energy after final integration           =     -8.717996666 Eh
Final COS-X integration done in                =     0.097 sec
Total Energy       :           -8.71799667 Eh            -237.22875 eV
  Last Energy change         ...    2.6624e-10  Tolerance :   1.0000e-08
  Last MAX-Density change    ...    0.0000e+00  Tolerance :   1.0000e-07
             **** THE GBW FILE WAS UPDATED (heliumrotconst.gbw) ****
             **** DENSITY heliumrotconst.scfp WAS UPDATED ****
             **** ENERGY FILE WAS UPDATED (heliumrotconst.en.tmp) ****
----------------------
UHF SPIN CONTAMINATION
----------------------

Warning: in a DFT calculation there is little theoretical justification to 
         calculate <S**2> as in Hartree-Fock theory. We will do it anyways
         but you should keep in mind that the values have only limited relevance

Expectation value of <S**2>     :    -0.000000
Ideal value S*(S+1) for S=0.0   :     0.000000
Deviation                       :    -0.000000

             **** THE GBW FILE WAS UPDATED (heliumrotconst.gbw) ****
             **** DENSITY heliumrotconst.scfp WAS UPDATED ****
Total SCF time: 0 days 0 hours 0 min 0 sec 

Maximum memory used throughout the entire SCF-calculation: 41.5 MB

-------------------------   --------------------
FINAL SINGLE POINT ENERGY        -8.717996665519
-------------------------   --------------------

------------------------------------------------------------------------------
                         ORCA SCF GRADIENT CALCULATION
------------------------------------------------------------------------------

 ... reading COSX grid (gridx3)
Gradient of the Kohn-Sham DFT energy:
Kohn-Sham wavefunction type      ... UKS
Hartree-Fock exchange scaling    ...    0.200
Number of operators              ...    2
Number of atoms                  ...    3
Basis set dimensions             ...   42
Integral neglect threshold       ... 2.5e-11
Integral primitive cutoff        ... 2.5e-12
SHARK Integral package           ... ON

Nuc. rep. gradient       (SHARK) ... done (  0.0 sec)
HCore & Overlap gradient (SHARK) ... done (  0.0 sec)
RI-J gradient            (SHARK) ... done (  0.0 sec)
COSX-gradient                    ... done (  0.1 sec)
Exchange-correlation gradient    ... done

------------------
CARTESIAN GRADIENT
------------------

   1   He  :   -0.002949654   -0.005201645    0.000713283
   2   He  :    0.005906589    0.000000008   -0.001429345
   3   He  :   -0.002949650    0.005201638    0.000713276

Difference to translation invariance:
           :    0.0000072846    0.0000000009   -0.0000027857

Difference to rotation invariance:
           :    0.0000000084    0.0000616831   -0.0000000165

Norm of the cartesian gradient     ...    0.0104624758
RMS gradient                       ...    0.0034874919
MAX gradient                       ...    0.0059065886

-------
TIMINGS
-------

Total SCF gradient time            ...        0.420 sec

One electron gradient       ....       0.003 sec  (  0.7%)
RI-J Coulomb gradient       ....       0.035 sec  (  8.3%)
COSX gradient               ....       0.148 sec  ( 35.3%)
XC gradient                 ....       0.143 sec  ( 34.1%)

Maximum memory used throughout the entire SCFGRAD-calculation: 31.7 MB
------------------------------------------------------------------------------
                         ORCA GEOMETRY RELAXATION STEP
------------------------------------------------------------------------------

Reading the OPT-File                    .... done
Getting information on internals        .... done
Copying old internal coords+grads       .... done
Making the new internal coordinates     .... (new redundants).... done
Validating the new internal coordinates .... (new redundants).... done
Calculating the B-matrix                .... done
Calculating the G,G- and P matrices     .... done
Transforming gradient to internals      .... done
Projecting the internal gradient        .... done
Number of atoms                         ....   3
Number of internal coordinates          ....   6
Current Energy                          ....    -8.717996666 Eh
Current gradient norm                   ....     0.010462476 Eh/bohr
Maximum allowed component of the step   ....  0.300
Current trust radius                    ....  0.300
Updating the Hessian (BFGS)             .... done
Forming the augmented Hessian           .... done
Diagonalizing the augmented Hessian     .... done
Last element of RFO vector              ....  0.907107405
Lowest eigenvalues of augmented Hessian:
 -0.002802789  0.013017956  0.045742327  0.045743249 999.966263275
Length of the computed step             ....  0.464001529
Warning: the length of the step is outside the trust region - taking restricted step instead
The input lambda is                     ....    -0.002803
   iter:   1  x=   -0.006591  g=   33.076696 f(x)=     0.125297
   iter:   2  x=   -0.009140  g=   15.372906 f(x)=     0.039180
   iter:   3  x=   -0.009875  g=   10.064564 f(x)=     0.007399
   iter:   4  x=   -0.009919  g=    8.999598 f(x)=     0.000401
   iter:   5  x=   -0.009919  g=    8.939953 f(x)=     0.000001
   iter:   6  x=   -0.009919  g=    8.939755 f(x)=     0.000000
   iter:   7  x=   -0.009919  g=    8.939755 f(x)=     0.000000
The output lambda is                    ....    -0.009919 (7 iterations)
The final length of the internal step   ....  0.300000000
Converting the step to cartesian space:
 Initial RMS(Int)=    0.1224744871
Transforming coordinates:
 Iter   0:  RMS(Cart)=    0.0577352651 RMS(Int)=    0.1224745034
 Iter   1:  RMS(Cart)=    0.0000018791 RMS(Int)=    0.0000030658
 Iter   2:  RMS(Cart)=    0.0000000134 RMS(Int)=    0.0000000219
done
Storing new coordinates                 .... done

                                .--------------------.
          ----------------------|Geometry convergence|-------------------------
          Item                value                   Tolerance       Converged
          ---------------------------------------------------------------------
          Energy change      -0.0022402143            0.0000050000      NO
          RMS gradient        0.0024660646            0.0001000000      NO
          MAX gradient        0.0035054990            0.0003000000      NO
          RMS step            0.1224744871            0.0020000000      NO
          MAX step            0.1734687205            0.0040000000      NO
          ........................................................
          Max(Bonds)      0.0918      Max(Angles)    0.02
          Max(Dihed)        0.00      Max(Improp)    0.00
          ---------------------------------------------------------------------

The optimization has not yet converged - more geometry cycles are needed


    ---------------------------------------------------------------------------
                         Redundant Internal Coordinates
                            (Angstroem and degrees)

        Definition                    Value    dE/dq     Step     New-Value
    ----------------------------------------------------------------------------
     1. B(He  1,He  0)                2.0448 -0.003505  0.0918    2.1366   
     2. B(He  2,He  1)                2.0448 -0.003505  0.0918    2.1366   
     3. B(He  2,He  0)                2.0493 -0.003451  0.0914    2.1406   
     4. A(He  1,He  0,He  2)           59.93 -0.000009    0.01     59.94   
     5. A(He  0,He  1,He  2)           60.14  0.000019   -0.02     60.12   
     6. A(He  0,He  2,He  1)           59.93 -0.000009    0.01     59.94   
    ----------------------------------------------------------------------------

         *************************************************************
         *                GEOMETRY OPTIMIZATION CYCLE   3            *
         *************************************************************
---------------------------------
CARTESIAN COORDINATES (ANGSTROEM)
---------------------------------
  He     0.590534    1.070319   -0.150947
  He    -1.205466   -0.000000    0.289353
  He     0.590534   -1.070319   -0.150947

----------------------------
CARTESIAN COORDINATES (A.U.)
----------------------------
  NO LB      ZA    FRAG     MASS         X           Y           Z
   0 He    2.0000    0     4.003    1.115948    2.022609   -0.285249
   1 He    2.0000    0     4.003   -2.278001   -0.000000    0.546798
   2 He    2.0000    0     4.003    1.115948   -2.022609   -0.285249

--------------------------------
INTERNAL COORDINATES (ANGSTROEM)
--------------------------------
 He     0   0   0     0.000000000000     0.00000000     0.00000000
 He     1   0   0     2.136600943888     0.00000000     0.00000000
 He     2   1   0     2.136600916865    60.12502205     0.00000000

---------------------------
INTERNAL COORDINATES (A.U.)
---------------------------
 He     0   0   0     0.000000000000     0.00000000     0.00000000
 He     1   0   0     4.037590641426     0.00000000     0.00000000
 He     2   1   0     4.037590590360    60.12502205     0.00000000

------------------------------------------------------------------------------
                   ___                                                        
                  /   \      - P O W E R E D   B Y -                         
                 /     \                                                     
                 |  |  |   _    _      __       _____    __    __             
                 |  |  |  | |  | |    /  \     |  _  \  |  |  /  |          
                  \  \/   | |  | |   /    \    | | | |  |  | /  /          
                 / \  \   | |__| |  /  /\  \   | |_| |  |  |/  /          
                |  |  |   |  __  | /  /__\  \  |    /   |      \           
                |  |  |   | |  | | |   __   |  |    \   |  |\   \          
                \     /   | |  | | |  |  |  |  | |\  \  |  | \   \       
                 \___/    |_|  |_| |__|  |__|  |_| \__\ |__|  \__/        
                                                                              
                      - O R C A' S   B I G   F R I E N D -                    
                                      &                                       
                       - I N T E G R A L  F E E D E R -                       
                                                                              
 v1 FN, 2020, v2 2021                                                         
------------------------------------------------------------------------------


Reading SHARK input file heliumrotconst.SHARKINP.tmp ... ok
----------------------
SHARK INTEGRAL PACKAGE
----------------------

Number of atoms                             ...      3
Number of basis functions                   ...     42
Number of shells                            ...     18
Maximum angular momentum                    ...      2
Integral batch strategy                     ... SHARK/LIBINT Hybrid
RI-J (if used) integral strategy            ... SPLIT-RIJ (Revised 2003 algorithm where possible)
Printlevel                                  ...      1
Contraction scheme used                     ... SEGMENTED contraction
Coulomb Range Separation                    ... NOT USED
Exchange Range Separation                   ... NOT USED
Finite Nucleus Model                        ... NOT USED
Auxiliary Coulomb fitting basis             ... AVAILABLE
   # of basis functions in Aux-J            ...     33
   # of shells in Aux-J                     ...     15
   Maximum angular momentum in Aux-J        ...      2
Auxiliary J/K fitting basis                 ... NOT available
Auxiliary Correlation fitting basis         ... NOT available
Auxiliary 'external' fitting basis          ... NOT available
Integral threshold                          ...     2.500000e-11
Primitive cut-off                           ...     2.500000e-12
Primitive pair pre-selection threshold      ...     2.500000e-12

Calculating pre-screening integrals         ... done (  0.0 sec) Dimension = 18
Organizing shell pair data                  ... done (  0.0 sec)
Shell pair information
Total number of shell pairs                 ...       171
Shell pairs after pre-screening             ...       171
Total number of primitive shell pairs       ...       396
Primitive shell pairs kept                  ...       333
          la=0 lb=0:     45 shell pairs
          la=1 lb=0:     54 shell pairs
          la=1 lb=1:     21 shell pairs
          la=2 lb=0:     27 shell pairs
          la=2 lb=1:     18 shell pairs
          la=2 lb=2:      6 shell pairs

Calculating one electron integrals          ... done (  0.0 sec)
Calculating RI/J V-Matrix + Cholesky decomp.... done (  0.0 sec)
Calculating Nuclear repulsion               ... done (  0.0 sec) ENN=      2.970201523807 Eh

SHARK setup successfully completed in   0.1 seconds

Maximum memory used throughout the entire GTOINT-calculation: 6.4 MB

Diagonalization of the overlap matrix:
Smallest eigenvalue                        ... 9.435e-02
Time for diagonalization                   ...    0.000 sec
Threshold for overlap eigenvalues          ... 1.000e-08
Number of eigenvalues below threshold      ... 0
Time for construction of square roots      ...    0.000 sec
Total time needed                          ...    0.001 sec

-------------------
DFT GRID GENERATION
-------------------

General Integration Accuracy     IntAcc      ... 4.388
Radial Grid Type                 RadialGrid  ... OptM3 with GC (2021)
Angular Grid (max. ang.)         AngularGrid ... 4 (Lebedev-302)
Angular grid pruning method      GridPruning ... 4 (adaptive)
Weight generation scheme         WeightScheme... Becke
Basis function cutoff            BFCut       ... 1.0000e-11
Integration weight cutoff        WCut        ... 1.0000e-14
Angular grids for H and He will be reduced by one unit
Partially contracted basis set               ... off
Rotationally invariant grid construction     ... off

Total number of grid points                  ...     9990
Total number of batches                      ...      158
Average number of points per batch           ...       63
Average number of grid points per atom       ...     3330
Time for grid setup =    0.036 sec

--------------------
COSX GRID GENERATION
--------------------

GRIDX 1
-------
General Integration Accuracy     IntAcc      ... 3.816
Radial Grid Type                 RadialGrid  ... OptM3 with GC (2021)
Angular Grid (max. ang.)         AngularGrid ... 1 (Lebedev-50)
Angular grid pruning method      GridPruning ... 4 (adaptive)
Weight generation scheme         WeightScheme... Becke
Basis function cutoff            BFCut       ... 1.0000e-11
Integration weight cutoff        WCut        ... 1.0000e-14
Angular grids for H and He will be reduced by one unit
Partially contracted basis set               ... on
Rotationally invariant grid construction     ... off

Total number of grid points                  ...     1342
Total number of batches                      ...       23
Average number of points per batch           ...       58
Average number of grid points per atom       ...      447
UseSFitting                                  ... on

GRIDX 2
-------
General Integration Accuracy     IntAcc      ... 4.020
Radial Grid Type                 RadialGrid  ... OptM3 with GC (2021)
Angular Grid (max. ang.)         AngularGrid ... 2 (Lebedev-110)
Angular grid pruning method      GridPruning ... 4 (adaptive)
Weight generation scheme         WeightScheme... Becke
Basis function cutoff            BFCut       ... 1.0000e-11
Integration weight cutoff        WCut        ... 1.0000e-14
Angular grids for H and He will be reduced by one unit
Partially contracted basis set               ... on
Rotationally invariant grid construction     ... off

Total number of grid points                  ...     2452
Total number of batches                      ...       39
Average number of points per batch           ...       62
Average number of grid points per atom       ...      817
UseSFitting                                  ... on

GRIDX 3
-------
General Integration Accuracy     IntAcc      ... 4.338
Radial Grid Type                 RadialGrid  ... OptM3 with GC (2021)
Angular Grid (max. ang.)         AngularGrid ... 3 (Lebedev-194)
Angular grid pruning method      GridPruning ... 4 (adaptive)
Weight generation scheme         WeightScheme... Becke
Basis function cutoff            BFCut       ... 1.0000e-11
Integration weight cutoff        WCut        ... 1.0000e-14
Angular grids for H and He will be reduced by one unit
Partially contracted basis set               ... on
Rotationally invariant grid construction     ... off

Total number of grid points                  ...     5398
Total number of batches                      ...       86
Average number of points per batch           ...       62
Average number of grid points per atom       ...     1799
UseSFitting                                  ... on

Time for X-Grid setup             =    0.028 sec

--------------
SCF ITERATIONS
--------------
ITER       Energy         Delta-E        Max-DP      RMS-DP      [F,P]     Damp
               ***  Starting incremental Fock matrix formation  ***
  0     -8.7194332616   0.000000000000 0.00018960  0.00001500  0.0014919 0.7000
  1     -8.7194404693  -0.000007207735 0.00017381  0.00001350  0.0011173 0.7000
                               ***Turning on DIIS***
  2     -8.7194457391  -0.000005269746 0.00044424  0.00003410  0.0008045 0.0000
               *** Restarting incremental Fock matrix formation ***
                                   *** Resetting DIIS ***
  3     -8.7194583943  -0.000012655194 0.00002183  0.00000190  0.0000427 0.0000
  4     -8.7194584080  -0.000000013763 0.00000622  0.00000038  0.0000115 0.0000
                 **** Energy Check signals convergence ****

               *****************************************************
               *                     SUCCESS                       *
               *           SCF CONVERGED AFTER   5 CYCLES          *
               *****************************************************

Old exchange energy                            =     -0.612492047 Eh
New exchange energy                            =     -0.612493962 Eh
Exchange energy change after final integration =     -0.000001915 Eh
Total energy after final integration           =     -8.719460323 Eh
Final COS-X integration done in                =     0.090 sec
[...]
      px      :     0.000000
      py      :     0.000011
      dz2     :     0.000000  d :     0.000000
      dxz     :     0.000000
      dyz     :     0.000000
      dx2y2   :     0.000000
      dxy     :     0.000000

SPIN
  0 Hes       :     0.000000  s :     0.000000
      pz      :     0.000000  p :     0.000000
      px      :     0.000000
      py      :     0.000000
      dz2     :     0.000000  d :     0.000000
      dxz     :     0.000000
      dyz     :     0.000000
      dx2y2   :     0.000000
      dxy     :     0.000000
  1 Hes       :     0.000000  s :     0.000000
      pz      :     0.000000  p :     0.000000
      px      :     0.000000
      py      :     0.000000
      dz2     :     0.000000  d :     0.000000
      dxz     :     0.000000
      dyz     :     0.000000
      dx2y2   :     0.000000
      dxy     :     0.000000
  2 Hes       :     0.000000  s :     0.000000
      pz      :     0.000000  p :     0.000000
      px      :     0.000000
      py      :     0.000000
      dz2     :     0.000000  d :     0.000000
      dxz     :     0.000000
      dyz     :     0.000000
      dx2y2   :     0.000000
      dxy     :     0.000000


                     *******************************
                     * LOEWDIN POPULATION ANALYSIS *
                     *******************************

-------------------------------------------
LOEWDIN ATOMIC CHARGES AND SPIN POPULATIONS
-------------------------------------------
   0 He:   -0.000000    0.000000
   1 He:    0.000000    0.000000
   2 He:   -0.000000    0.000000

----------------------------------------------------
LOEWDIN REDUCED ORBITAL CHARGES AND SPIN POPULATIONS
----------------------------------------------------
CHARGE
  0 Hes       :     1.999987  s :     1.999987
      pz      :     0.000000  p :     0.000013
      px      :     0.000000
      py      :     0.000013
      dz2     :     0.000000  d :     0.000000
      dxz     :     0.000000
      dyz     :     0.000000
      dx2y2   :     0.000000
      dxy     :     0.000000
  1 Hes       :     2.000000  s :     2.000000
      pz      :     0.000000  p :     0.000000
      px      :     0.000000
      py      :     0.000000
      dz2     :     0.000000  d :     0.000000
      dxz     :     0.000000
      dyz     :     0.000000
      dx2y2   :     0.000000
      dxy     :     0.000000
  2 Hes       :     1.999987  s :     1.999987
      pz      :     0.000000  p :     0.000013
      px      :     0.000000
      py      :     0.000013
      dz2     :     0.000000  d :     0.000000
      dxz     :     0.000000
      dyz     :     0.000000
      dx2y2   :     0.000000
      dxy     :     0.000000

SPIN
  0 Hes       :     0.000000  s :     0.000000
      pz      :     0.000000  p :     0.000000
      px      :     0.000000
      py      :     0.000000
      dz2     :     0.000000  d :     0.000000
      dxz     :     0.000000
      dyz     :     0.000000
      dx2y2   :     0.000000
      dxy     :     0.000000
  1 Hes       :     0.000000  s :     0.000000
      pz      :     0.000000  p :     0.000000
      px      :     0.000000
      py      :     0.000000
      dz2     :     0.000000  d :     0.000000
      dxz     :     0.000000
      dyz     :     0.000000
      dx2y2   :     0.000000
      dxy     :     0.000000
  2 Hes       :     0.000000  s :     0.000000
      pz      :     0.000000  p :     0.000000
      px      :     0.000000
      py      :     0.000000
      dz2     :     0.000000  d :     0.000000
      dxz     :     0.000000
      dyz     :     0.000000
      dx2y2   :     0.000000
      dxy     :     0.000000


                      *****************************
                      * MAYER POPULATION ANALYSIS *
                      *****************************

  NA   - Mulliken gross atomic population
  ZA   - Total nuclear charge
  QA   - Mulliken gross atomic charge
  VA   - Mayer's total valence
  BVA  - Mayer's bonded valence
  FA   - Mayer's free valence

  ATOM       NA         ZA         QA         VA         BVA        FA
  0 He     2.0000     2.0000     0.0000     0.0005     0.0005     0.0000
  1 He     2.0000     2.0000    -0.0000     0.0001     0.0001     0.0000
  2 He     2.0000     2.0000     0.0000     0.0005     0.0005     0.0000

  Mayer bond orders larger than 0.100000


-------
TIMINGS
-------

Total SCF time: 0 days 0 hours 0 min 0 sec 

Total time                  ....       0.523 sec
Sum of individual times     ....       0.455 sec  ( 87.0%)

Fock matrix formation       ....       0.375 sec  ( 71.7%)
  Split-RI-J                ....       0.122 sec  ( 32.4% of F)
  Chain of spheres X        ....       0.195 sec  ( 51.9% of F)
  XC integration            ....       0.061 sec  ( 16.2% of F)
    Basis function eval.    ....       0.013 sec  ( 22.0% of XC)
    Density eval.           ....       0.013 sec  ( 21.5% of XC)
    XC-Functional eval.     ....       0.022 sec  ( 36.0% of XC)
    XC-Potential eval.      ....       0.005 sec  (  8.0% of XC)
Diagonalization             ....       0.002 sec  (  0.3%)
Density matrix formation    ....       0.000 sec  (  0.0%)
Population analysis         ....       0.005 sec  (  1.0%)
Initial guess               ....       0.001 sec  (  0.2%)
Orbital Transformation      ....       0.000 sec  (  0.0%)
Orbital Orthonormalization  ....       0.000 sec  (  0.1%)
DIIS solution               ....       0.000 sec  (  0.0%)
Grid generation             ....       0.072 sec  ( 13.7%)

Maximum memory used throughout the entire SCF-calculation: 41.1 MB

-------------------------   --------------------
FINAL SINGLE POINT ENERGY        -8.722093903956
-------------------------   --------------------

                                *** OPTIMIZATION RUN DONE ***

                            ***************************************
                            *     ORCA property calculations      *
                            ***************************************

                                    ---------------------
                                    Active property flags
                                    ---------------------
   (+) Dipole Moment


------------------------------------------------------------------------------
                       ORCA ELECTRIC PROPERTIES CALCULATION
------------------------------------------------------------------------------

Dipole Moment Calculation                       ... on
Quadrupole Moment Calculation                   ... off
Polarizability Calculation                      ... off
GBWName                                         ... heliumrotconst.gbw
Electron density                                ... heliumrotconst.scfp
The origin for moment calculation is the CENTER OF MASS  = (-0.015368,  0.000000 -0.007900)

-------------
DIPOLE MOMENT
-------------
                                X             Y             Z
Electronic contribution:     -0.00000       0.00000      -0.00001
Nuclear contribution   :      0.00000       0.00000      -0.00000
                        -----------------------------------------
Total Dipole Moment    :     -0.00000       0.00000      -0.00001
                        -----------------------------------------
Magnitude (a.u.)       :      0.00001
Magnitude (Debye)      :      0.00003



--------------------
Rotational spectrum 
--------------------
 
Rotational constants in cm-1:     1.000818     0.554866     0.356962 
Rotational constants in MHz : 30003.775740 16634.474003 10701.452784 

 Dipole components along the rotational axes: 
x,y,z [a.u.] :     0.000002     0.000000    -0.000011 
x,y,z [Debye]:     0.000004     0.000000    -0.000029 

 

-------------------------------------------------------------------------------
                               ORCA SCF HESSIAN
-------------------------------------------------------------------------------

                   --------- SHARK INITIALIZATION DONE ---------

Hessian of the Kohn-Sham DFT energy:
Kohn-Sham wavefunction type                      ... UKS
Hartree-Fock exchange scaling                    ...    0.200
Number of operators                              ...    2
Number of atoms                                  ...    3
Basis set dimensions                             ...   42
Integral neglect threshold                       ... 2.5e-11
Integral primitive cutoff                        ... 2.5e-12

Setting up DFT Hessian calculations              ... 

HESS GRID
---------

General Integration Accuracy     IntAcc      ... 4.629
Radial Grid Type                 RadialGrid  ... OptM3 with GC (2021)
Angular Grid (max. ang.)         AngularGrid ... 5 (Lebedev-434)
Angular grid pruning method      GridPruning ... 4 (adaptive)
Weight generation scheme         WeightScheme... Becke
Basis function cutoff            BFCut       ... 1.0000e-11
Integration weight cutoff        WCut        ... 1.0000e-14
Angular grids for H and He will be reduced by one unit
Partially contracted basis set               ... off
Rotationally invariant grid construction     ... off

Total number of grid points                  ...    15668
Total number of batches                      ...      247
Average number of points per batch           ...       63
Average number of grid points per atom       ...     5223

Building densities                               ... done   (      0.0 sec)
Calculating rho(r) on the grid                   ... done   (      0.0 sec)
Building xc-kernel on the grid                   ... done   (      0.0 sec)
                                                     done   (      0.2 sec)

Nuclear repulsion Hessian  (SHARK)               ... done   (      0.0 sec)

----------------------------------------------
Forming right-hand sides of CP-SCF equations     ...
----------------------------------------------
One electron integral derivatives  (SHARK)       ... done   (      0.0 sec)
Transforming the overlap derivative matrices     ... done   (      0.0 sec)
Making the Q(x) pseudodensities                  ... done   (      0.0 sec)
Adding the E*S(x)*S(y) terms to the Hessian      ... done   (      0.0 sec)
Calculating energy weighted overlap derivatives  ... done   (      0.0 sec)
Two electron integral derivatives (SHARK-RI)     ... done   (      0.1 sec)
Exchange-correlation integral derivatives        ... done   (      0.3 sec)
tr(F(y)Q(x)) contribution to the Hessian         ... done   (      0.0 sec)
Response fock operator R(S(x)) (SHARK-RIJCOSX)   ... done   (      0.2 sec)
XC Response fock operator R(S(x))                ... done   (      0.1 sec)
tr(F(y)S(x)) contribution to the Hessian         ... done   (      0.0 sec)
Transforming and finalizing RHSs                 ... done   (      0.0 sec)

----------------------------------------------
Solving the CP-SCF equations (RIJCOSX)           ...
----------------------------------------------
     CP-SCF ITERATION   0:   5.1092e-05 (   0.1 sec   9/  9 done)
                    *** THE CP-SCF HAS CONVERGED ***

                                                 ... done   (      0.2 sec)
Forming perturbed density Hessian contributions  ... done   (      0.0 sec)
2nd integral derivative contribs (SHARK-RI)      ... done   (      0.1 sec)
Exchange-correlation Hessian                     ... done   (      0.8 sec)
Dipole derivatives                               ... (center of mass: -0.015368,  0.000000 -0.007900)done   (      0.1 sec)

Total SCF Hessian time: 0 days 0 hours 0 min 2 sec 

Writing the Hessian file to the disk             ... done


Maximum memory used throughout the entire SCFHESS-calculation: 49.5 MB

-----------------------
VIBRATIONAL FREQUENCIES
-----------------------

Scaling factor for frequencies =  1.000000000  (already applied!)

   0:         0.00 cm**-1
   1:         0.00 cm**-1
   2:         0.00 cm**-1
   3:         0.00 cm**-1
   4:         0.00 cm**-1
   5:         0.00 cm**-1
   6:       -10.50 cm**-1 ***imaginary mode***
   7:         9.21 cm**-1
   8:        26.50 cm**-1


------------
NORMAL MODES
------------

These modes are the Cartesian displacements weighted by the diagonal matrix
M(i,i)=1/sqrt(m[i]) where m[i] is the mass of the displaced atom
Thus, these vectors are normalized but *not* orthogonal

                  0          1          2          3          4          5    
      0       0.000000   0.000000   0.000000   0.000000   0.000000   0.000000
      1       0.000000   0.000000   0.000000   0.000000   0.000000   0.000000
      2       0.000000   0.000000   0.000000   0.000000   0.000000   0.000000
      3       0.000000   0.000000   0.000000   0.000000   0.000000   0.000000
      4       0.000000   0.000000   0.000000   0.000000   0.000000   0.000000
      5       0.000000   0.000000   0.000000   0.000000   0.000000   0.000000
      6       0.000000   0.000000   0.000000   0.000000   0.000000   0.000000
      7       0.000000   0.000000   0.000000   0.000000   0.000000   0.000000
      8       0.000000   0.000000   0.000000   0.000000   0.000000   0.000000
                  6          7          8    
      0       0.550847   0.391344   0.063748
      1       0.243812  -0.113686   0.697908
      2      -0.135043  -0.095940  -0.015628
      3      -0.000006  -0.782698  -0.127495
      4      -0.487627   0.000004  -0.000000
      5       0.000002   0.191883   0.031256
      6      -0.550840   0.391353   0.063747
      7       0.243815   0.113682  -0.697908
      8       0.135042  -0.095943  -0.015628


-----------
IR SPECTRUM
-----------

 Mode   freq       eps      Int      T**2         TX        TY        TZ
       cm**-1   L/(mol*cm) km/mol    a.u.
----------------------------------------------------------------------------
  7:      9.21   0.000000    0.00  0.000000  (-0.000018  0.000000 -0.000002)
  8:     26.50   0.000000    0.00  0.000000  (-0.000005 -0.000000 -0.000001)

* The epsilon (eps) is given for a Dirac delta lineshape.
** The dipole moment derivative (T) already includes vibrational overlap.

The first frequency considered to be a vibration is 7
The total number of vibrations considered is 2


--------------------------
THERMOCHEMISTRY AT 298.15K
--------------------------

Temperature         ... 298.15 K
Pressure            ... 1.00 atm
Total Mass          ... 12.01 AMU

Throughout the following assumptions are being made:
  (1) The electronic state is orbitally nondegenerate
  (2) There are no thermally accessible electronically excited states
  (3) Hindered rotations indicated by low frequency modes are not
      treated as such but are treated as vibrations and this may
      cause some error
  (4) All equations used are the standard statistical mechanics
      equations for an ideal gas
  (5) All vibrations are strictly harmonic

freq.       9.21  E(vib)   ...       0.58 
freq.      26.50  E(vib)   ...       0.56 

------------
INNER ENERGY
------------

The inner energy is: U= E(el) + E(ZPE) + E(vib) + E(rot) + E(trans)
    E(el)   - is the total energy from the electronic structure calculation
              = E(kin-el) + E(nuc-el) + E(el-el) + E(nuc-nuc)
    E(ZPE)  - the the zero temperature vibrational energy from the frequency calculation
    E(vib)  - the the finite temperature correction to E(ZPE) due to population
              of excited vibrational states
    E(rot)  - is the rotational thermal energy
    E(trans)- is the translational thermal energy

Summary of contributions to the inner energy U:
Electronic energy                ...     -8.72209390 Eh
Zero point energy                ...      0.00008134 Eh       0.05 kcal/mol
Thermal vibrational correction   ...      0.00180852 Eh       1.13 kcal/mol
Thermal rotational correction    ...      0.00141627 Eh       0.89 kcal/mol
Thermal translational correction ...      0.00141627 Eh       0.89 kcal/mol
-----------------------------------------------------------------------
Total thermal energy                     -8.71737150 Eh


Summary of corrections to the electronic energy:
(perhaps to be used in another calculation)
Total thermal correction                  0.00464106 Eh       2.91 kcal/mol
Non-thermal (ZPE) correction              0.00008134 Eh       0.05 kcal/mol
-----------------------------------------------------------------------
Total correction                          0.00472240 Eh       2.96 kcal/mol


--------
ENTHALPY
--------

The enthalpy is H = U + kB*T
                kB is Boltzmann's constant
Total free energy                 ...     -8.71737150 Eh 
Thermal Enthalpy correction       ...      0.00094421 Eh       0.59 kcal/mol
-----------------------------------------------------------------------
Total Enthalpy                    ...     -8.71642729 Eh


Note: Rotational entropy computed according to Herzberg 
Infrared and Raman Spectra, Chapter V,1, Van Nostrand Reinhold, 1945 
Point Group:  C2v, Symmetry Number:   2  
Rotational constants in cm-1:     1.000818     0.554866     0.356962 

Vibrational entropy computed according to the QRRHO of S. Grimme
Chem.Eur.J. 2012 18 9955


-------
ENTROPY
-------

The entropy contributions are T*S = T*(S(el)+S(vib)+S(rot)+S(trans))
     S(el)   - electronic entropy
     S(vib)  - vibrational entropy
     S(rot)  - rotational entropy
     S(trans)- translational entropy
The entropies will be listed as multiplied by the temperature to get
units of energy

Electronic entropy                ...      0.00000000 Eh      0.00 kcal/mol
Vibrational entropy               ...      0.00447077 Eh      2.81 kcal/mol
Rotational entropy                ...      0.00962035 Eh      6.04 kcal/mol
Translational entropy             ...      0.01586944 Eh      9.96 kcal/mol
-----------------------------------------------------------------------
Final entropy term                ...      0.02996056 Eh     18.80 kcal/mol

In case the symmetry of your molecule has not been determined correctly
or in case you have a reason to use a different symmetry number we print 
out the resulting rotational entropy values for sn=1,12 :
 --------------------------------------------------------
|  sn= 1 | S(rot)=       0.01027481 Eh      6.45 kcal/mol|
|  sn= 2 | S(rot)=       0.00962035 Eh      6.04 kcal/mol|
|  sn= 3 | S(rot)=       0.00923752 Eh      5.80 kcal/mol|
|  sn= 4 | S(rot)=       0.00896590 Eh      5.63 kcal/mol|
|  sn= 5 | S(rot)=       0.00875521 Eh      5.49 kcal/mol|
|  sn= 6 | S(rot)=       0.00858307 Eh      5.39 kcal/mol|
|  sn= 7 | S(rot)=       0.00843752 Eh      5.29 kcal/mol|
|  sn= 8 | S(rot)=       0.00831144 Eh      5.22 kcal/mol|
|  sn= 9 | S(rot)=       0.00820023 Eh      5.15 kcal/mol|
|  sn=10 | S(rot)=       0.00810075 Eh      5.08 kcal/mol|
|  sn=11 | S(rot)=       0.00801076 Eh      5.03 kcal/mol|
|  sn=12 | S(rot)=       0.00792861 Eh      4.98 kcal/mol|
 --------------------------------------------------------


-------------------
GIBBS FREE ENERGY
-------------------

The Gibbs free energy is G = H - T*S

Total enthalpy                    ...     -8.71642729 Eh 
Total entropy correction          ...     -0.02996056 Eh    -18.80 kcal/mol
-----------------------------------------------------------------------
Final Gibbs free energy         ...     -8.74638785 Eh

For completeness - the Gibbs free energy minus the electronic energy
G-E(el)                           ...     -0.02429395 Eh    -15.24 kcal/mol


Timings for individual modules:

Sum of individual times         ...       44.878 sec (=   0.748 min)
GTO integral calculation        ...        4.214 sec (=   0.070 min)   9.4 %
SCF iterations                  ...       23.881 sec (=   0.398 min)  53.2 %
SCF Gradient evaluation         ...       13.641 sec (=   0.227 min)  30.4 %
Geometry relaxation             ...        0.680 sec (=   0.011 min)   1.5 %
Analytical frequency calculation...        2.461 sec (=   0.041 min)   5.5 %
                             ****ORCA TERMINATED NORMALLY****
TOTAL RUN TIME: 0 days 0 hours 0 minutes 45 seconds 857 msec
